chemcompute.org
{'UTCtimestamp': '2022-10-04T21:16:57.898307', 'cluster': 'jetstream2', 'clusterJobNumber': '120807', 'status': 'RUNNING', 'nodeList': 'chemcompute-node-1'}
----- GAMESS execution script 'rungms' -----
This job is running on host chemcompute-node-1.novalocal
under operating system Linux at Tue Oct 4 21:17:01 UTC 2022
SLURM has assigned the following compute nodes to this run:
Available scratch disk space (Kbyte units) at beginning of the job is
Filesystem     1K-blocks     Used Available Use% Mounted on
/dev/sda1       62903276 11248652  51654624  18% /
GAMESS temporary binary files will be written to /scratch/120807
GAMESS supplementary output files will be written to /data/slurm/46/460764
Copying input file 460764.inp to your run's scratch directory...
The generated host list is
chemcompute-node-1.novalocal

 Distributed Data Interface kickoff program.
 Initiating 1 compute processes on 1 nodes to run the following command:
 /data/gamess-2019R1-avx2-ddi/gamess.00.x 460764 

          ******************************************************
          *         GAMESS VERSION = 30 JUN 2019 (R1)          *
          *             FROM IOWA STATE UNIVERSITY             *
          * M.W.SCHMIDT, K.K.BALDRIDGE, J.A.BOATZ, S.T.ELBERT, *
          *   M.S.GORDON, J.H.JENSEN, S.KOSEKI, N.MATSUNAGA,   *
          *          K.A.NGUYEN, S.J.SU, T.L.WINDUS,           *
          *       TOGETHER WITH M.DUPUIS, J.A.MONTGOMERY       *
          *         J.COMPUT.CHEM.  14, 1347-1363(1993)        *
          **************** 64 BIT INTEL VERSION ****************

  SINCE 1993, STUDENTS AND POSTDOCS WORKING AT IOWA STATE UNIVERSITY
  AND ALSO IN THEIR VARIOUS JOBS AFTER LEAVING ISU HAVE MADE IMPORTANT
  CONTRIBUTIONS TO THE CODE:
     IVANA ADAMOVIC, CHRISTINE AIKENS, YURI ALEXEEV, POOJA ARORA,
     ANDREY ASADCHEV, ROB BELL, PRADIPTA BANDYOPADHYAY, JONATHAN BENTZ,
     COLLEEN BERTONI, BRETT BODE, KURT BRORSEN, CALEB CARLIN, GALINA CHABAN,
     WEI CHEN, CHEOL HO CHOI, PAUL DAY, ALBERT DEFUSCO, NUWAN DESILVA,
     TIM DUDLEY, DMITRI FEDOROV, ALEX FINDLATER, GRAHAM FLETCHER, 
     MARK FREITAG, KURT GLAESEMANN, ANASTASIA GUNINA,
     DAN KEMP, GRANT MERRILL, NORIYUKI MINEZAWA, JONATHAN MULLIN,
     TAKESHI NAGATA, SEAN NEDD, HEATHER NETZLOFF, BOSILJKA NJEGIC, RYAN OLSON,
     MIKE PAK, BUU PHAM,
     SPENCER PRUITT, LUKE ROSKOP, JIM SHOEMAKER, LYUDMILA SLIPCHENKO,
     TONY SMITH, SAROM SOK LEANG, JIE SONG, TETSUYA TAKETSUGU, SIMON WEBB,
     PENG XU, SOOHAENG YOO, FEDERICO ZAHARIEV

  ADDITIONAL CODE HAS BEEN PROVIDED BY COLLABORATORS IN OTHER GROUPS:
     IOWA STATE UNIVERSITY:
          JOE IVANIC, AARON WEST, LAIMUTIS BYTAUTAS, KLAUS RUEDENBERG
     UNIVERSITY OF TOKYO: KIMIHIKO HIRAO, TAKAHITO NAKAJIMA,
          TAKAO TSUNEDA, MUNEAKI KAMIYA, SUSUMU YANAGISAWA,
          KIYOSHI YAGI, MAHITO CHIBA, SEIKEN TOKURA, NAOAKI KAWAKAMI
     UNIVERSITY OF AARHUS: FRANK JENSEN
     UNIVERSITY OF IOWA: VISVALDAS KAIRYS, HUI LI
     NATIONAL INST. OF STANDARDS AND TECHNOLOGY: WALT STEVENS, DAVID GARMER
     UNIVERSITY OF PISA: BENEDETTA MENNUCCI, JACOPO TOMASI
     UNIVERSITY OF MEMPHIS: HENRY KURTZ, PRAKASHAN KORAMBATH
     UNIVERSITY OF ALBERTA: TOBY ZENG, MARIUSZ KLOBUKOWSKI
     UNIVERSITY OF NEW ENGLAND: MARK SPACKMAN
     MIE UNIVERSITY: HIROAKI UMEDA
     NAT. INST. OF ADVANCED INDUSTRIAL SCIENCE AND TECHNOLOGY: KAZUO KITAURA
     MICHIGAN STATE UNIVERSITY:
          KAROL KOWALSKI, MARTA WLOCH, JEFFREY GOUR, JESSE LUTZ,
          WEI LI, JUN SHEN, J. EMILIANO DEUSTUA, PIOTR PIECUCH
     UNIVERSITY OF MINNESOTA:
          YINAN SHU
     UNIVERSITY OF SILESIA: MONIKA MUSIAL, STANISLAW KUCHARSKI
     FACULTES UNIVERSITAIRES NOTRE-DAME DE LA PAIX:
          OLIVIER QUINET, BENOIT CHAMPAGNE
     UNIVERSITY OF CALIFORNIA - SANTA BARBARA: BERNARD KIRTMAN
     INSTITUTE FOR MOLECULAR SCIENCE:
          KAZUYA ISHIMURA, MICHIO KATOUDA, AND SHIGERU NAGASE
     UNIVERSITY OF NOTRE DAME: ANNA POMOGAEVA, DAN CHIPMAN
     KYUSHU UNIVERSITY:
          HARUYUKI NAKANO,
          FENG LONG GU, JACEK KORCHOWIEC, MARCIN MAKOWSKI, AND YURIKO AOKI,
          HIROTOSHI MORI AND EISAKU MIYOSHI
     PENNSYLVANIA STATE UNIVERSITY:
          TZVETELIN IORDANOV, CHET SWALINA, JONATHAN SKONE,
          SHARON HAMMES-SCHIFFER
     WASEDA UNIVERSITY:
          MASATO KOBAYASHI, TOMOKO AKAMA, TSUGUKI TOUMA,
          TAKESHI YOSHIKAWA, YASUHIRO IKABATA, JUNJI SEINO,
          YUYA NAKAJIMA, HIROMI NAKAI
     NANJING UNIVERSITY: SHUHUA LI
     UNIVERSITY OF NEBRASKA:
          PEIFENG SU, DEJUN SI, NANDUN THELLAMUREGE, YALI WANG, HUI LI
     UNIVERSITY OF ZURICH: ROBERTO PEVERATI, KIM BALDRIDGE
     N. COPERNICUS UNIVERSITY AND JACKSON STATE UNIVERSITY:
          MARIA BARYSZ
     UNIVERSITY OF COPENHAGEN: Jimmy Kromann, CASPER STEINMANN
     TOKYO INSTITUTE OF TECHNOLOGY: HIROYA NAKATA
     NAGOYA UNIVERSITY: YOSHIO NISHIMOTO, STEPHAN IRLE
     MOSCOW STATE UNIVERSITY: VLADIMIR MIRONOV
     A.N.NESMEYANOV INSTITUTE OF ORGANOELEMENT COMPOUNDS OF RUSSIAN ACADEMY OF SCIENCES:
          IGOR S. GERASIMOV

 EXECUTION OF GAMESS BEGUN Tue Oct  4 21:17:01 2022

            ECHO OF THE FIRST FEW INPUT CARDS -
 INPUT CARD>!                                                                               
 INPUT CARD>!   GAMESS Calculation input file                                               
 INPUT CARD>!   Molecula de prueba                                                          
 INPUT CARD>!                                                                               
 INPUT CARD> $CONTRL SCFTYP=RHF MAXIT=200 RUNTYP=OPTIMIZE                                   
 INPUT CARD>         COORD=UNIQUE MULT=1                                                    
 INPUT CARD>         ICHARG=0                                                               
 INPUT CARD>         DFTTYP=B3LYP                                                           
 INPUT CARD>         MOLPLT=.FALSE. PLTORB=.FALSE.  $END                                    
 INPUT CARD> $SYSTEM TIMLIM=2879 MWORDS=250  $END                                           
 INPUT CARD>                                                                                
 INPUT CARD> $FORCE METHOD=SEMINUM NVIB=2 $END                                              
 INPUT CARD> $STATPT OPTTOL=0.0005 NSTEP=999 $END                                           
 INPUT CARD> $STATPT IHREP=0 HSSEND=.TRUE.  $END                                            
 INPUT CARD>                                                                                
 INPUT CARD> $DFT    METHOD=GRID  NLEB=590  $END                                            
 INPUT CARD>                                                                                
 INPUT CARD> $BASIS  GBASIS=N31 NGAUSS=6                                                    
 INPUT CARD>         NDFUNC=1   NPFUNC=0  $END                                              
 INPUT CARD>                                                                                
 INPUT CARD> $SCF    DIRSCF=.T. $END                                                        
 INPUT CARD> $GUESS  GUESS=HUCKEL  $END                                                     
 INPUT CARD>                                                                                
 INPUT CARD> $DATA                                                                          
 INPUT CARD>   Molecula de prueba                                                           
 INPUT CARD>  C1                                                                            
 INPUT CARD>O     8.0    -0.74564     1.24913     0.14006                                   
 INPUT CARD>C     6.0    -0.89805     0.04903    -0.04424                                   
 INPUT CARD>C     6.0     0.21744    -0.93007    -0.07664                                   
 INPUT CARD>C     6.0     1.49628    -0.52507    -0.03385                                   
 INPUT CARD>H     1.0    -1.89566    -0.39021    -0.20417                                   
 INPUT CARD>H     1.0    -0.04801    -1.97767    -0.14248                                   
 INPUT CARD>H     1.0     1.75752     0.52770     0.02586                                   
 INPUT CARD>H     1.0     2.30796    -1.24216    -0.05971                                   
 INPUT CARD> $END                                                                           
 INPUT CARD>                                                                                
 INPUT CARD>                                                                                
 INPUT CARD>! Customizations after this line are persisted when using Do More Calculations  
  250000000 WORDS OF MEMORY AVAILABLE

     BASIS OPTIONS
     -------------
     GBASIS=N31          IGAUSS=       6      POLAR=POPN31  
     NDFUNC=       1     NFFUNC=       0     DIFFSP=       F
     NPFUNC=       0      DIFFS=       F     BASNAM=        


     RUN TITLE
     ---------
    Molecula de prueba                                                           

 THE POINT GROUP OF THE MOLECULE IS C1      
 THE ORDER OF THE PRINCIPAL AXIS IS     0

 ATOM      ATOMIC                      COORDINATES (BOHR)
           CHARGE         X                   Y                   Z
 O           8.0    -1.4090552855        2.3605134230        0.2646750218
 C           6.0    -1.6970684233        0.0926532652       -0.0836014777
 C           6.0     0.4109020188       -1.7575774494       -0.1448285997
 C           6.0     2.8275592009       -0.9922384244       -0.0639672247
 H           1.0    -3.5822779659       -0.7373899777       -0.3858253549
 H           1.0    -0.0907257447       -3.7372543941       -0.2692481587
 H           1.0     3.3212312179        0.9972084037        0.0488683140
 H           1.0     4.3614119906       -2.3473420329       -0.1128355387

          INTERNUCLEAR DISTANCES (ANGS.)
          ------------------------------

                1 O          2 C          3 C          4 C          5 H     

   1 O       0.0000000    1.2236974 *  2.3923617 *  2.8643037 *  2.0318651 *
   2 C       1.2236974 *  0.0000000    1.4845890 *  2.4622175 *  1.1016965 *
   3 C       2.3923617 *  1.4845890 *  0.0000000    1.3421206 *  2.1846978 *
   4 C       2.8643037 *  2.4622175 *  1.3421206 *  0.0000000    3.3988900  
   5 H       2.0318651 *  1.1016965 *  2.1846978 *  3.3988900    0.0000000  
   6 H       3.3134204    2.1999391 *  1.0827116 *  2.1228940 *  2.4367284 *
   7 H       2.6075492 *  2.6992760 *  2.1230747 *  1.0863408 *  3.7737510  
   8 H       3.9459988    3.4562857    2.1137551 *  1.0833795 *  4.2915159  

                6 H          7 H          8 H     

   1 O       3.3134204    2.6075492 *  3.9459988  
   2 C       2.1999391 *  2.6992760 *  3.4562857  
   3 C       1.0827116 *  2.1230747 *  2.1137551 *
   4 C       2.1228940 *  1.0863408 *  1.0833795 *
   5 H       2.4367284 *  3.7737510    4.2915159  
   6 H       0.0000000    3.0927586    2.4694980 *
   7 H       3.0927586    0.0000000    1.8554543 *
   8 H       2.4694980 *  1.8554543 *  0.0000000  

  * ... LESS THAN  3.000


     ATOMIC BASIS SET
     ----------------
 THE CONTRACTED PRIMITIVE FUNCTIONS HAVE BEEN UNNORMALIZED
 THE CONTRACTED BASIS FUNCTIONS ARE NOW NORMALIZED TO UNITY

  SHELL TYPE  PRIMITIVE        EXPONENT          CONTRACTION COEFFICIENT(S)

 O         

      1   S       1          5484.6716600    0.001831074430
      1   S       2           825.2349460    0.013950172200
      1   S       3           188.0469580    0.068445078098
      1   S       4            52.9645000    0.232714335992
      1   S       5            16.8975704    0.470192897984
      1   S       6             5.7996353    0.358520852987

      2   L       7            15.5396162   -0.110777549525    0.070874268231
      2   L       8             3.5999336   -0.148026262701    0.339752839147
      2   L       9             1.0137618    1.130767015354    0.727158577316

      3   L      10             0.2700058    1.000000000000    1.000000000000

      4   D      11             0.8000000    1.000000000000

 C         

      5   S      12          3047.5248800    0.001834737132
      5   S      13           457.3695180    0.014037322813
      5   S      14           103.9486850    0.068842622264
      5   S      15            29.2101553    0.232184443216
      5   S      16             9.2866630    0.467941348435
      5   S      17             3.1639270    0.362311985337

      6   L      18             7.8682723   -0.119332419775    0.068999066591
      6   L      19             1.8812885   -0.160854151696    0.316423960957
      6   L      20             0.5442493    1.143456437840    0.744308290898

      7   L      21             0.1687145    1.000000000000    1.000000000000

      8   D      22             0.8000000    1.000000000000

 C         

      9   S      23          3047.5248800    0.001834737132
      9   S      24           457.3695180    0.014037322813
      9   S      25           103.9486850    0.068842622264
      9   S      26            29.2101553    0.232184443216
      9   S      27             9.2866630    0.467941348435
      9   S      28             3.1639270    0.362311985337

     10   L      29             7.8682723   -0.119332419775    0.068999066591
     10   L      30             1.8812885   -0.160854151696    0.316423960957
     10   L      31             0.5442493    1.143456437840    0.744308290898

     11   L      32             0.1687145    1.000000000000    1.000000000000

     12   D      33             0.8000000    1.000000000000

 C         

     13   S      34          3047.5248800    0.001834737132
     13   S      35           457.3695180    0.014037322813
     13   S      36           103.9486850    0.068842622264
     13   S      37            29.2101553    0.232184443216
     13   S      38             9.2866630    0.467941348435
     13   S      39             3.1639270    0.362311985337

     14   L      40             7.8682723   -0.119332419775    0.068999066591
     14   L      41             1.8812885   -0.160854151696    0.316423960957
     14   L      42             0.5442493    1.143456437840    0.744308290898

     15   L      43             0.1687145    1.000000000000    1.000000000000

     16   D      44             0.8000000    1.000000000000

 H         

     17   S      45            18.7311370    0.033494604338
     17   S      46             2.8253944    0.234726953484
     17   S      47             0.6401217    0.813757326146

     18   S      48             0.1612778    1.000000000000

 H         

     19   S      49            18.7311370    0.033494604338
     19   S      50             2.8253944    0.234726953484
     19   S      51             0.6401217    0.813757326146

     20   S      52             0.1612778    1.000000000000

 H         

     21   S      53            18.7311370    0.033494604338
     21   S      54             2.8253944    0.234726953484
     21   S      55             0.6401217    0.813757326146

     22   S      56             0.1612778    1.000000000000

 H         

     23   S      57            18.7311370    0.033494604338
     23   S      58             2.8253944    0.234726953484
     23   S      59             0.6401217    0.813757326146

     24   S      60             0.1612778    1.000000000000

 TOTAL NUMBER OF BASIS SET SHELLS             =   24
 NUMBER OF CARTESIAN GAUSSIAN BASIS FUNCTIONS =   68
 NUMBER OF ELECTRONS                          =   30
 CHARGE OF MOLECULE                           =    0
 SPIN MULTIPLICITY                            =    1
 NUMBER OF OCCUPIED ORBITALS (ALPHA)          =   15
 NUMBER OF OCCUPIED ORBITALS (BETA )          =   15
 TOTAL NUMBER OF ATOMS                        =    8
 THE NUCLEAR REPULSION ENERGY IS      104.3014533668

 SELECTED MURRAY-HANDY-LAMING RADIAL GRID

 LEGACY BECKE'S FUZZY CELL METHOD

 SELECTED ORIGINAL BECKE'S PARTITION FUNCTION

     LEBEDEV GRID-BASED DFT OPTIONS
     ------------------------------
     DFTTYP=B3LYP   
     NRAD  =      96     NLEB  =     590
     NRAD0 =      24     NLEB0 =     110
     SWOFF =    5.00E-03 (PURE SCF -> DFT)
     SWITCH=    3.00E-04 (COARSE -> TIGHT GRID)
     THRESH=    0.00E+00 GTHRE=    1.00E+00

 GRIMME'S EMPIRICAL DISPERSION CORRECTION= F

     $CONTRL OPTIONS
     ---------------
 SCFTYP=RHF          RUNTYP=OPTIMIZE     EXETYP=RUN     
 MPLEVL=       0     CITYP =NONE         CCTYP =NONE         VBTYP =NONE    
 DFTTYP=B3LYP        TDDFT =NONE    
 MULT  =       1     ICHARG=       0     NZVAR =       0     COORD =UNIQUE  
 PP    =NONE         RELWFN=NONE         LOCAL =NONE         NUMGRD=       F
 ISPHER=      -1     NOSYM =       0     MAXIT =     200     UNITS =ANGS    
 PLTORB=       F     MOLPLT=       F     AIMPAC=       F     FRIEND=        
 NPRINT=       7     IREST =       0     GEOM  =INPUT   
 NORMF =       0     NORMP =       0     ITOL  =      20     ICUT  =       9
 INTTYP=BEST         GRDTYP=BEST         QMTTOL= 1.0E-06

     $SYSTEM OPTIONS
     ---------------
  REPLICATED MEMORY=   250000000 WORDS (ON EVERY NODE).
 DISTRIBUTED MEMDDI=           0 MILLION WORDS IN AGGREGATE,
 MEMDDI DISTRIBUTED OVER   1 PROCESSORS IS           0 WORDS/PROCESSOR.
 TOTAL MEMORY REQUESTED ON EACH PROCESSOR=   250000000 WORDS.
 TIMLIM=        2879.00 MINUTES, OR       2.0 DAYS.
 PARALL= F  BALTYP=  DLB     KDIAG=    0  COREFL= F
 MXSEQ2=     300 MXSEQ3=     150  mem10=         0

          ----------------
          PROPERTIES INPUT
          ----------------

     MOMENTS            FIELD           POTENTIAL          DENSITY
 IEMOM =       1   IEFLD =       0   IEPOT =       0   IEDEN =       0
 WHERE =COMASS     WHERE =NUCLEI     WHERE =NUCLEI     WHERE =NUCLEI  
 OUTPUT=BOTH       OUTPUT=BOTH       OUTPUT=BOTH       OUTPUT=BOTH    
 IEMINT=       0   IEFINT=       0                     IEDINT=       0
                                                       MORB  =       0
          EXTRAPOLATION IN EFFECT
          DIIS IN EFFECT
 ORBITAL PRINTING OPTION: NPREO=     1    68     2     1

     -------------------------------
     INTEGRAL TRANSFORMATION OPTIONS
     -------------------------------
     NWORD  =            0
     CUTOFF = 1.0E-09     MPTRAN =       0
     DIRTRF =       T     AOINTS =DUP     

          ----------------------
          INTEGRAL INPUT OPTIONS
          ----------------------
 NOPK  =       1 NORDER=       0 SCHWRZ=       T

     ------------------------------------------
     THE POINT GROUP IS C1 , NAXIS= 0, ORDER= 1
     ------------------------------------------

     DIMENSIONS OF THE SYMMETRY SUBSPACES ARE
 A   =   68

 ..... DONE SETTING UP THE RUN .....
 STEP CPU TIME =     0.01 TOTAL CPU TIME =          0.0 (      0.0 MIN)
 TOTAL WALL CLOCK TIME=          0.0 SECONDS, CPU UTILIZATION IS    50.00%


          -----------------------------
          STATIONARY POINT LOCATION RUN
          -----------------------------

 OBTAINING INITIAL HESSIAN, HESS=GUESS   
 CARTESIAN COORDINATE OPTIMIZATION USING BADGER'S RULE FORCE CONSTANT GUESS

          PARAMETERS CONTROLLING GEOMETRY SEARCH ARE
          METHOD =QA                  UPHESS =BFGS    
          NNEG   =         0          NFRZ   =         0
          NSTEP  =       999          IFOLOW =         1
          HESS   =GUESS               RESTAR =         F
          IHREP  =         0          HSSEND =         T
          NPRT   =         0          NPUN   =         0
          OPTTOL = 5.000E-04          RMIN   = 1.500E-03
          RMAX   = 1.000E-01          RLIM   = 7.000E-02
          DXMAX  = 3.000E-01          PURIFY =         F
          MOVIE  =         F          TRUPD  =         T
          TRMAX  = 5.000E-01          TRMIN  = 5.000E-02
          ITBMAT =         5          STPT   =         F
          STSTEP = 1.000E-02          PROJCT=          T

 BEGINNING GEOMETRY SEARCH POINT NSERCH=   0 ...

 COORDINATES OF ALL ATOMS ARE (ANGS)
   ATOM   CHARGE       X              Y              Z
 ------------------------------------------------------------
 O           8.0  -0.7456400000   1.2491300000   0.1400600000
 C           6.0  -0.8980500000   0.0490300000  -0.0442400000
 C           6.0   0.2174400000  -0.9300700000  -0.0766400000
 C           6.0   1.4962800000  -0.5250700000  -0.0338500000
 H           1.0  -1.8956600000  -0.3902100000  -0.2041700000
 H           1.0  -0.0480100000  -1.9776700000  -0.1424800000
 H           1.0   1.7575200000   0.5277000000   0.0258600000
 H           1.0   2.3079600000  -1.2421600000  -0.0597100000

          ********************
          1 ELECTRON INTEGRALS
          ********************
 ...... END OF ONE-ELECTRON INTEGRALS ......
 STEP CPU TIME =     0.01 TOTAL CPU TIME =          0.0 (      0.0 MIN)
 TOTAL WALL CLOCK TIME=          0.0 SECONDS, CPU UTILIZATION IS    50.00%

          -------------
          GUESS OPTIONS
          -------------
          GUESS =HUCKEL            NORB  =       0          NORDER=       0
          MIX   =       F          PRTMO =       F          PUNMO =       F
          TOLZ  = 1.0E-08          TOLE  = 1.0E-05
          SYMDEN=       F          PURIFY=       F

 INITIAL GUESS ORBITALS GENERATED BY HUCKEL   ROUTINE.
 HUCKEL GUESS REQUIRES     42032 WORDS.

 SYMMETRIES FOR INITIAL GUESS ORBITALS FOLLOW.   BOTH SET(S).
    15 ORBITALS ARE OCCUPIED (    4 CORE ORBITALS).
     5=A        6=A        7=A        8=A        9=A       10=A       11=A   
    12=A       13=A       14=A       15=A       16=A       17=A       18=A   
    19=A       20=A       21=A       22=A       23=A       24=A       25=A   
 ...... END OF INITIAL ORBITAL SELECTION ......
 STEP CPU TIME =     0.00 TOTAL CPU TIME =          0.0 (      0.0 MIN)
 TOTAL WALL CLOCK TIME=          0.1 SECONDS, CPU UTILIZATION IS    40.00%

                    ----------------------
                    AO INTEGRAL TECHNOLOGY
                    ----------------------
     S,P,L SHELL ROTATED AXIS INTEGRALS, REPROGRAMMED BY
        KAZUYA ISHIMURA (IMS) AND JOSE SIERRA (SYNSTAR).
     S,P,D,L SHELL ROTATED AXIS INTEGRALS PROGRAMMED BY
        KAZUYA ISHIMURA (INSTITUTE FOR MOLECULAR SCIENCE).
     S,P,D,F,G SHELL TO TOTAL QUARTET ANGULAR MOMENTUM SUM 5,
        ERIC PROGRAM BY GRAHAM FLETCHER (ELORET AND NASA ADVANCED
        SUPERCOMPUTING DIVISION, AMES RESEARCH CENTER).
     S,P,D,F,G,L SHELL GENERAL RYS QUADRATURE PROGRAMMED BY
        MICHEL DUPUIS (PACIFIC NORTHWEST NATIONAL LABORATORY).

          --------------------
          2 ELECTRON INTEGRALS
          --------------------

 DIRECT SCF METHOD SKIPS INTEGRAL STORAGE ON DISK.
 DIRECT TRANSFORMATION SKIPS AO INTEGRAL STORAGE ON DISK.
  ...... END OF TWO-ELECTRON INTEGRALS .....
 STEP CPU TIME =     0.01 TOTAL CPU TIME =          0.0 (      0.0 MIN)
 TOTAL WALL CLOCK TIME=          0.1 SECONDS, CPU UTILIZATION IS    50.00%

          --------------------------
             R-B3LYP SCF CALCULATION
          --------------------------

     NUCLEAR ENERGY =       104.3014533668
     MAXIT =  200     NPUNCH=    2
     EXTRAP=T  DAMP=F  SHIFT=F  RSTRCT=F  DIIS=T  DEM=F  SOSCF=F
         DENSITY MATRIX CONVERGENCE THRESHOLD=  2.00E-05
     COARSE -> FINE DFT GRID SWITCH THRESHOLD=  3.00E-04 (SWITCH IN $DFT)
                   HF -> DFT SWITCH THRESHOLD=  5.00E-03 (SWOFF IN $DFT)
     MEMORY REQUIRED FOR RHF ITERS=    620217 WORDS.

 DIRECT SCF CALCULATION, SCHWRZ=T   FDIFF=T,  DIRTHR=  0.00E+00 NITDIR=10
 SCHWARZ INEQUALITY OVERHEAD:      2344 INTEGRALS, T=        0.00

 DFT CODE IS SWITCHING FROM THE FINE GRID NRAD= 96,  NLEB=  590
                      TO THE COARSE GRID NRAD0= 24, NLEB0=  110

     EXCHANGE FUNCTIONAL   =B88&HFX   
     CORRELATION FUNCTIONAL=LYP88&VWN5
     DFT THRESHOLD         =.883E-08
     GRID CHANGE THRESHOLD =.300E-03
 FOR AN EULER-MACLAURIN QUADRATURE USING  96 RADIAL POINTS:
 SMALLEST GAUSSIAN PRIMITIVE EXPONENT=        0.1612777588 OF TYPE -S-
 ON ATOM NUMBER   5 HAS RADIAL NORMALIZATION=  1.000000
  LARGEST GAUSSIAN PRIMITIVE EXPONENT=     5484.6716600000 OF TYPE -S-
 ON ATOM NUMBER   1 HAS RADIAL NORMALIZATION=  1.000000
 DFT IS SWITCHED OFF, PERFORMING PURE SCF UNTIL SWOFF THRESHOLD IS REACHED.

                                                                                   NONZERO     BLOCKS
 ITER EX DEM     TOTAL ENERGY        E CHANGE  DENSITY CHANGE    DIIS ERROR      INTEGRALS    SKIPPED
          * * *   INITIATING DIIS PROCEDURE   * * *
   1  0  0     -190.2084937143  -190.2084937143   0.285580373   0.412690692        2645540       3483
   2  1  0     -190.6950487889    -0.4865550746   0.143644999   0.104692512        2645030       3783
   3  2  0     -190.7336772780    -0.0386284891   0.069408386   0.070807760        2640747       4270
   4  3  0     -190.7560279114    -0.0223506334   0.010821082   0.008437486        2634184       4690
   5  4  0     -190.7566636262    -0.0006357148   0.006547215   0.002885159        2619076       5390
   6  5  0     -190.7567792082    -0.0001155820   0.002801049   0.001066199        2606790       5882
 CONVERGED TO SWOFF, SO DFT CALCULATION IS NOW SWITCHED ON.
          * * *   INITIATING DIIS PROCEDURE   * * *
   7  6  0     -191.7780649008    -1.0212856926   0.123685676   0.100529476        2645451       3477
   8  7  0     -191.7956351128    -0.0175702119   0.073221525   0.031066163        2641467       4141
   9  8  0     -191.7905363743     0.0050987384   0.057235777   0.047912358        2635371       4564
  10  9  0     -191.7999917226    -0.0094553482   0.009164902   0.007315962        2629137       4882
  11 10  0     -191.8003116775    -0.0003199549   0.000998797   0.000994925        2609794       5676
  12 11  0     -191.8003145739    -0.0000028965   0.000624930   0.000387605        2577824       7051
  13 12  0     -191.8003151858    -0.0000006119   0.000169638   0.000137764        2542014       8244
 DFT CODE IS SWITCHING BACK TO THE FINE GRID
          * * *   INITIATING DIIS PROCEDURE   * * *
  14 13  0     -191.7981344229     0.0021807629   0.004009368   0.001825589        2645696       3432
  15 14  0     -191.7981434667    -0.0000090438   0.000439639   0.000224156        2601144       6322
  16 15  0     -191.7981433970     0.0000000697   0.000317421   0.000267976        2548204       8134
  17 16  0     -191.7981436422    -0.0000002453   0.000122683   0.000093691        2519973       9010
  18 17  0     -191.7981436748    -0.0000000325   0.000027363   0.000022128        2482961      10055
  19 18  0     -191.7981436767    -0.0000000019   0.000012840   0.000006642        2422758      11492
  20 19  0     -191.7981436769    -0.0000000002   0.000004277   0.000002788        2345317      13489

          -----------------
          DENSITY CONVERGED
          -----------------
     TIME TO FORM FOCK OPERATORS=       9.5 SECONDS (       0.5 SEC/ITER)
     FOCK TIME ON FIRST ITERATION=       0.1, LAST ITERATION=       1.1
     TIME TO SOLVE SCF EQUATIONS=       0.1 SECONDS (       0.0 SEC/ITER)

 FINAL R-B3LYP ENERGY IS     -191.7981436769 AFTER  20 ITERATIONS
 DFT EXCHANGE + CORRELATION ENERGY =       -21.1469333890
 TOTAL ELECTRON NUMBER             =        30.0000029929

          ------------
          EIGENVECTORS
          ------------

                      1          2          3          4          5
                  -19.1437   -10.2736   -10.2106   -10.2032    -1.0338
                     A          A          A          A          A   
    1  O  1  S    0.992756  -0.000122   0.000000   0.000048  -0.194703
    2  O  1  S    0.025658   0.000413   0.000002   0.000182   0.425806
    3  O  1  X   -0.000135  -0.000004  -0.000002   0.000007  -0.017909
    4  O  1  Y   -0.001124   0.000052   0.000013  -0.000038  -0.158011
    5  O  1  Z   -0.000173   0.000003   0.000000  -0.000015  -0.024233
    6  O  1  S    0.013911  -0.002996  -0.000144  -0.001551   0.398700
    7  O  1  X   -0.000083   0.000348  -0.000110  -0.000249  -0.003130
    8  O  1  Y   -0.001593   0.001904   0.000012   0.000436  -0.054737
    9  O  1  Z   -0.000246   0.000319  -0.000001   0.000073  -0.008382
   10  O  1 XX   -0.008114   0.000268   0.000002   0.000199  -0.010188
   11  O  1 YY   -0.007622  -0.000290   0.000011   0.000176   0.009805
   12  O  1 ZZ   -0.008126   0.000409  -0.000027   0.000060  -0.005597
   13  O  1 XY    0.000049  -0.000105   0.000010   0.000036   0.002485
   14  O  1 XZ    0.000009  -0.000032   0.000005   0.000024  -0.000214
   15  O  1 YZ    0.000091  -0.000129   0.000006   0.000020   0.002871
   16  C  2  S    0.000007   0.992828  -0.000138  -0.002168  -0.117700
   17  C  2  S    0.000521   0.048703  -0.000190  -0.000350   0.228717
   18  C  2  X    0.000040   0.000172  -0.000081  -0.000208   0.027617
   19  C  2  Y   -0.000005   0.000759  -0.000015   0.000179   0.174357
   20  C  2  Z    0.000004   0.000124  -0.000008   0.000002   0.027165
   21  C  2  S   -0.002915  -0.009075   0.000587   0.005148   0.083198
   22  C  2  X   -0.001020   0.000113   0.000647   0.002386  -0.017510
   23  C  2  Y   -0.003221   0.003618  -0.000068  -0.000352  -0.031724
   24  C  2  Z   -0.000525   0.000486   0.000048   0.000120  -0.005798
   25  C  2 XX   -0.000078  -0.009407   0.000051  -0.000282  -0.016599
   26  C  2 YY   -0.000807  -0.008461  -0.000008  -0.000358   0.021814
   27  C  2 ZZ   -0.000048  -0.009664  -0.000074  -0.000136  -0.018428
   28  C  2 XY   -0.000128   0.000115  -0.000021   0.000223   0.006960
   29  C  2 XZ   -0.000021   0.000043   0.000000   0.000017   0.001281
   30  C  2 YZ   -0.000141   0.000216   0.000003  -0.000000   0.007364
   31  C  3  S   -0.000021   0.001922   0.055695   0.991196  -0.020538
   32  C  3  S   -0.000080   0.000018   0.002324   0.049624   0.036565
   33  C  3  X   -0.000081   0.000274  -0.000394   0.000072  -0.015058
   34  C  3  Y   -0.000024  -0.000180  -0.000136   0.000174   0.024620
   35  C  3  Z   -0.000008  -0.000004  -0.000014  -0.000004   0.001733
   36  C  3  S    0.001159   0.002362   0.003238  -0.015955   0.025062
   37  C  3  X    0.001654  -0.003015   0.001931  -0.000875   0.017876
   38  C  3  Y    0.001068  -0.000146   0.000114  -0.002580   0.017920
   39  C  3  Z    0.000169  -0.000119   0.000027  -0.000166   0.002621
   40  C  3 XX    0.000086  -0.000479  -0.000853  -0.009095   0.002410
   41  C  3 YY   -0.000095  -0.000309  -0.000764  -0.009375   0.004054
   42  C  3 ZZ   -0.000047  -0.000128  -0.000658  -0.009604  -0.002554
   43  C  3 XY    0.000017   0.000173  -0.000007   0.000107  -0.004801
   44  C  3 XZ    0.000001   0.000003  -0.000002   0.000019  -0.000358
   45  C  3 YZ   -0.000004  -0.000017  -0.000008   0.000015   0.000510
   46  C  4  S    0.000005  -0.000034   0.991125  -0.056158  -0.007669
   47  C  4  S    0.000034  -0.000205   0.049164  -0.003315   0.014311
   48  C  4  X    0.000045  -0.000029  -0.000061   0.000338  -0.009222
   49  C  4  Y    0.000042  -0.000075  -0.000072   0.000112   0.002079
   50  C  4  Z    0.000011  -0.000000  -0.000016   0.000011   0.000119
   51  C  4  S   -0.001564   0.001893  -0.012631   0.006454  -0.011894
   52  C  4  X    0.000923  -0.001130   0.000818  -0.002410   0.005073
   53  C  4  Y    0.000240  -0.000118   0.000412  -0.000021   0.002635
   54  C  4  Z   -0.000010  -0.000020   0.000045  -0.000034  -0.000053
   55  C  4 XX   -0.000055   0.000126  -0.009229   0.000215   0.001015
   56  C  4 YY    0.000010   0.000016  -0.009446   0.000295   0.000018
   57  C  4 ZZ    0.000022  -0.000091  -0.009780   0.000444  -0.000944
   58  C  4 XY   -0.000059   0.000059   0.000078  -0.000085  -0.000673
   59  C  4 XZ    0.000001   0.000005   0.000014  -0.000010  -0.000018
   60  C  4 YZ    0.000000   0.000004   0.000021  -0.000012   0.000100
   61  H  5  S   -0.000061  -0.000235   0.000015  -0.000044   0.028205
   62  H  5  S   -0.000638   0.002532   0.000342   0.000345  -0.016731
   63  H  6  S    0.000135  -0.000225  -0.000101  -0.000413   0.006332
   64  H  6  S    0.000390  -0.000544  -0.000018   0.001483   0.006470
   65  H  7  S    0.000116  -0.000107  -0.000335  -0.000123   0.004733
   66  H  7  S   -0.000269   0.000066   0.002077  -0.000522   0.003122
   67  H  8  S    0.000015  -0.000024  -0.000340  -0.000028   0.001786
   68  H  8  S   -0.000119   0.000305   0.002204   0.000016   0.000908

                      6          7          8          9         10
                   -0.7890    -0.6570    -0.5443    -0.5057    -0.4427
                     A          A          A          A          A   
    1  O  1  S    0.044323  -0.057584  -0.054993   0.021884  -0.069749
    2  O  1  S   -0.099681   0.134153   0.124676  -0.049115   0.136364
    3  O  1  X    0.020761   0.011459   0.081879   0.161079   0.111927
    4  O  1  Y    0.002918   0.046975   0.103394  -0.075153   0.351109
    5  O  1  Z    0.001918   0.006457   0.025112  -0.001291   0.065804
    6  O  1  S   -0.112168   0.142370   0.175925  -0.083051   0.331840
    7  O  1  X    0.007189   0.007119   0.038565   0.088128   0.062716
    8  O  1  Y   -0.001118   0.034229   0.055055  -0.038863   0.168438
    9  O  1  Z    0.000357   0.004850   0.013048  -0.000392   0.032520
   10  O  1 XX    0.001359   0.000725  -0.002086  -0.001614  -0.005256
   11  O  1 YY    0.002319  -0.007528  -0.009709   0.008100  -0.026642
   12  O  1 ZZ    0.000065   0.001306   0.000602  -0.001156  -0.003465
   13  O  1 XY   -0.002072  -0.001687  -0.008094  -0.012830  -0.007695
   14  O  1 XZ   -0.000179  -0.000400  -0.001494  -0.001944  -0.001539
   15  O  1 YZ    0.000213  -0.001522  -0.002804   0.000795  -0.005143
   16  C  2  S   -0.047099   0.119509   0.091683  -0.012910   0.031728
   17  C  2  S    0.094175  -0.251746  -0.198317   0.032523  -0.080011
   18  C  2  X    0.064230   0.014064   0.184130   0.282599   0.054027
   19  C  2  Y   -0.118237   0.181302   0.039645  -0.010194  -0.262236
   20  C  2  Z   -0.011790   0.024703   0.027311   0.017414  -0.023170
   21  C  2  S    0.077397  -0.204787  -0.197167   0.021040  -0.077000
   22  C  2  X    0.019829   0.019173   0.063089   0.089838   0.010926
   23  C  2  Y   -0.013791   0.068520   0.041202   0.003674  -0.061219
   24  C  2  Z   -0.000982   0.010562   0.013191   0.004923  -0.002991
   25  C  2 XX    0.010238  -0.006613  -0.005380   0.001444   0.003953
   26  C  2 YY   -0.005632   0.009169   0.012418  -0.007231   0.001561
   27  C  2 ZZ   -0.004007   0.008845   0.006643  -0.000857   0.005607
   28  C  2 XY   -0.008171   0.002390  -0.009199  -0.002345  -0.001859
   29  C  2 XZ    0.000134  -0.001647  -0.002439  -0.000723   0.000011
   30  C  2 YZ   -0.001015   0.000379  -0.000052  -0.001251  -0.001036
   31  C  3  S   -0.163867   0.053318  -0.096644   0.001913   0.004749
   32  C  3  S    0.321015  -0.107716   0.198945   0.000062  -0.012421
   33  C  3  X    0.061701   0.221390   0.041649  -0.033914  -0.272580
   34  C  3  Y    0.038508  -0.009125  -0.124254   0.302980  -0.064605
   35  C  3  Z    0.001932   0.005430  -0.002100   0.019377  -0.009211
   36  C  3  S    0.217760  -0.091812   0.189362  -0.007630   0.011342
   37  C  3  X   -0.006356   0.051597  -0.016434  -0.007445  -0.114377
   38  C  3  Y   -0.017676  -0.000497  -0.055339   0.094417  -0.011359
   39  C  3  Z   -0.001979   0.001148  -0.002294   0.006731  -0.003177
   40  C  3 XX    0.005033   0.002640  -0.012329  -0.002888  -0.003665
   41  C  3 YY   -0.000578  -0.005764   0.007416  -0.003193   0.008332
   42  C  3 ZZ   -0.015808   0.004857  -0.007328   0.000736  -0.000160
   43  C  3 XY    0.003873   0.009920   0.006034  -0.003802   0.000359
   44  C  3 XZ    0.000669   0.000255  -0.000115  -0.000490   0.000144
   45  C  3 YZ    0.000883  -0.000343   0.001463  -0.000374   0.000619
   46  C  4  S   -0.142644  -0.126878   0.066936   0.006125   0.005343
   47  C  4  S    0.276938   0.253524  -0.137880  -0.014124  -0.014567
   48  C  4  X   -0.095938   0.047877  -0.196265  -0.125362   0.225715
   49  C  4  Y   -0.029554  -0.005189  -0.110560   0.225928   0.187537
   50  C  4  Z   -0.003632   0.000781  -0.007383   0.011322   0.013438
   51  C  4  S    0.220592   0.224664  -0.141619  -0.014472   0.016759
   52  C  4  X   -0.009371   0.026089  -0.081935  -0.044637   0.060070
   53  C  4  Y   -0.000225   0.000868  -0.039150   0.092745   0.061472
   54  C  4  Z   -0.000410   0.000537  -0.002031   0.004564   0.004861
   55  C  4 XX    0.007844  -0.002556   0.006072   0.000218  -0.005033
   56  C  4 YY    0.000230   0.006938  -0.010618  -0.001098   0.013705
   57  C  4 ZZ   -0.014722  -0.011857   0.005546   0.000179  -0.000168
   58  C  4 XY    0.002747  -0.002904   0.008714   0.003030  -0.001044
   59  C  4 XZ    0.000652  -0.000063   0.000328   0.000074  -0.000234
   60  C  4 YZ    0.000935   0.001105  -0.000772  -0.000123   0.000868
   61  H  5  S    0.027247  -0.124524  -0.171722  -0.114930  -0.000886
   62  H  5  S    0.009177  -0.039231  -0.088635  -0.081911   0.011070
   63  H  6  S    0.085180  -0.060495   0.144049  -0.155258   0.076375
   64  H  6  S    0.006749  -0.023601   0.068992  -0.111569   0.067643
   65  H  7  S    0.070711   0.099449  -0.135036   0.091681   0.140030
   66  H  7  S    0.006042   0.034121  -0.059766   0.050130   0.128102
   67  H  8  S    0.072560   0.113241  -0.101638  -0.134723   0.024415
   68  H  8  S    0.011785   0.039211  -0.049485  -0.084594   0.025932

                     11         12         13         14         15
                   -0.4211    -0.3899    -0.3837    -0.2820    -0.2537
                     A          A          A          A          A   
    1  O  1  S    0.037176   0.001040   0.028091   0.000658   0.001160
    2  O  1  S   -0.081438  -0.001665  -0.054884  -0.002326  -0.008489
    3  O  1  X    0.132152  -0.069334  -0.118949   0.041521   0.573246
    4  O  1  Y   -0.287103  -0.057836  -0.211276   0.046202  -0.084119
    5  O  1  Z    0.013647   0.426738  -0.089805  -0.274348   0.054624
    6  O  1  S   -0.129281  -0.008382  -0.131426  -0.002932   0.021442
    7  O  1  X    0.076183  -0.040734  -0.066256   0.030547   0.405428
    8  O  1  Y   -0.167076  -0.033820  -0.114403   0.032286  -0.064580
    9  O  1  Z    0.007770   0.261886  -0.053279  -0.193476   0.037891
   10  O  1 XX   -0.005383   0.001423   0.002237  -0.000268  -0.004173
   11  O  1 YY    0.020002   0.006596   0.010623  -0.003651   0.002662
   12  O  1 ZZ   -0.003187  -0.007274   0.001041   0.003384  -0.002712
   13  O  1 XY   -0.009645   0.004949   0.007117  -0.002135  -0.017758
   14  O  1 XZ   -0.001848  -0.001960   0.001466   0.002738  -0.003027
   15  O  1 YZ   -0.000088  -0.027764   0.005580   0.012434  -0.001339
   16  C  2  S   -0.027260   0.003323   0.017110  -0.000344  -0.000367
   17  C  2  S    0.071346  -0.007424  -0.031205   0.000401  -0.012987
   18  C  2  X    0.256760  -0.070151  -0.080935  -0.007473  -0.136713
   19  C  2  Y    0.112803  -0.036741   0.220962   0.002301   0.022549
   20  C  2  Z    0.082153   0.350623  -0.010496  -0.042044  -0.009474
   21  C  2  S    0.037344  -0.013241  -0.094764   0.003306   0.044968
   22  C  2  X    0.068266  -0.034545  -0.048428   0.002466   0.062976
   23  C  2  Y   -0.042084  -0.016670   0.055384   0.007763  -0.058881
   24  C  2  Z    0.024309   0.202133  -0.016529  -0.034563  -0.000803
   25  C  2 XX   -0.019324   0.000377  -0.012119   0.001331   0.014514
   26  C  2 YY    0.005316  -0.004875   0.011857   0.003710  -0.012116
   27  C  2 ZZ   -0.002907   0.005701  -0.002659  -0.004339  -0.000446
   28  C  2 XY   -0.000129  -0.002781  -0.001135   0.002790   0.046361
   29  C  2 XZ   -0.000158   0.006962  -0.001822   0.009289   0.007909
   30  C  2 YZ    0.002489   0.017730  -0.000589  -0.022906   0.003718
   31  C  3  S    0.013579  -0.001934  -0.008353   0.001283   0.038439
   32  C  3  S   -0.032339   0.002995   0.009708  -0.001029  -0.075344
   33  C  3  X   -0.232166   0.024143  -0.023539   0.000399   0.161568
   34  C  3  Y   -0.088637  -0.019507  -0.252196  -0.025788  -0.147491
   35  C  3  Z    0.016650   0.170494  -0.029914   0.368561  -0.020535
   36  C  3  S    0.003590   0.012959   0.066897  -0.016946  -0.325882
   37  C  3  X   -0.014236   0.003933   0.005204  -0.008837   0.105959
   38  C  3  Y   -0.002232  -0.005378  -0.067156  -0.022928  -0.117374
   39  C  3  Z    0.015071   0.091397  -0.011257   0.262897  -0.015710
   40  C  3 XX   -0.004309   0.000570  -0.013410  -0.000080   0.000321
   41  C  3 YY    0.011943  -0.001666   0.019858  -0.000052   0.003535
   42  C  3 ZZ   -0.000024   0.000470  -0.001666   0.000659   0.001865
   43  C  3 XY   -0.011400   0.003239   0.017634  -0.000574   0.006049
   44  C  3 XZ   -0.001633  -0.003248   0.000805   0.014061   0.000193
   45  C  3 YZ    0.002106   0.008114   0.001159   0.003734   0.000673
   46  C  4  S    0.017047  -0.004103   0.004551  -0.000147  -0.002573
   47  C  4  S   -0.037584   0.009586  -0.008713   0.000271  -0.000000
   48  C  4  X    0.307265  -0.041479  -0.009250  -0.009271  -0.055240
   49  C  4  Y   -0.109152   0.042441   0.319359  -0.021970  -0.021296
   50  C  4  Z    0.011283   0.095804   0.007163   0.371591  -0.015119
   51  C  4  S   -0.082552   0.012292  -0.021982   0.006924   0.018984
   52  C  4  X    0.127001  -0.008502   0.024569  -0.013895  -0.104965
   53  C  4  Y   -0.028125   0.013639   0.127203  -0.016605  -0.006711
   54  C  4  Z    0.006839   0.060305  -0.000309   0.255024  -0.008013
   55  C  4 XX    0.002282  -0.001823  -0.013798   0.000485  -0.004136
   56  C  4 YY    0.006014   0.000990   0.016154   0.000691   0.003034
   57  C  4 ZZ    0.000499  -0.000331   0.000733  -0.001124  -0.001141
   58  C  4 XY   -0.014809   0.004405   0.020240   0.000961   0.004475
   59  C  4 XZ   -0.001792  -0.006631   0.001524  -0.014075   0.000546
   60  C  4 YZ    0.000083  -0.000719   0.001218  -0.005456   0.000904
   61  H  5  S   -0.144221   0.013690  -0.032651   0.013798   0.172796
   62  H  5  S   -0.147337   0.014502  -0.031437   0.018402   0.269259
   63  H  6  S    0.075775   0.004469   0.196167   0.001176   0.046213
   64  H  6  S    0.083460   0.004235   0.194342   0.000924   0.083691
   65  H  7  S   -0.032996   0.027353   0.206028  -0.000317   0.004609
   66  H  7  S   -0.025819   0.016734   0.165891   0.005633   0.074390
   67  H  8  S    0.177982  -0.038043  -0.161237  -0.001030  -0.030145
   68  H  8  S    0.158890  -0.039558  -0.155957   0.000812  -0.010791

                     16         17         18         19         20
                   -0.0656     0.0670     0.1061     0.1325     0.1649
                     A          A          A          A          A   
    1  O  1  S   -0.001065   0.003601   0.005068  -0.025120  -0.000203
    2  O  1  S    0.000205  -0.005172  -0.018321   0.059393   0.040626
    3  O  1  X   -0.034106  -0.029385  -0.076695   0.030994  -0.053418
    4  O  1  Y   -0.051600  -0.022675   0.015429  -0.055448  -0.084466
    5  O  1  Z    0.328468   0.262843  -0.021296  -0.006991  -0.015120
    6  O  1  S    0.017765  -0.047578  -0.032039   0.252422  -0.216718
    7  O  1  X   -0.033112  -0.033488  -0.114221  -0.046696  -0.108119
    8  O  1  Y   -0.054312  -0.018203   0.017257  -0.147881  -0.002994
    9  O  1  Z    0.322421   0.307914  -0.032417  -0.021318  -0.006121
   10  O  1 XX   -0.000854   0.001315   0.003286  -0.008832   0.017393
   11  O  1 YY   -0.000025  -0.000797  -0.002686   0.009121   0.002644
   12  O  1 ZZ   -0.001635   0.003441  -0.004052  -0.003309   0.007901
   13  O  1 XY    0.000245  -0.001432  -0.002689  -0.001762  -0.001980
   14  O  1 XZ    0.000317   0.003014  -0.000114   0.000659   0.000559
   15  O  1 YZ   -0.002136   0.005138  -0.000200   0.002537  -0.001658
   16  C  2  S    0.000722   0.000638   0.055420   0.053514   0.098577
   17  C  2  S   -0.000205  -0.004408  -0.097437  -0.069981  -0.151528
   18  C  2  X    0.033668   0.046076   0.144355   0.095473   0.193103
   19  C  2  Y    0.047925   0.065263   0.097220   0.049366   0.134002
   20  C  2  Z   -0.338487  -0.399933   0.055655   0.002472   0.040553
   21  C  2  S   -0.014515   0.015354  -0.789761  -1.011137  -1.409384
   22  C  2  X    0.029420   0.063229   0.290261   0.243999   0.576277
   23  C  2  Y    0.032347   0.115757   0.218518   0.039863   0.682990
   24  C  2  Z   -0.319945  -0.537223   0.114869   0.012622   0.136277
   25  C  2 XX   -0.001058   0.000550   0.018024  -0.002708   0.003035
   26  C  2 YY   -0.005640  -0.005266  -0.006977   0.007205   0.022678
   27  C  2 ZZ    0.006750   0.004996   0.000327  -0.000494  -0.001450
   28  C  2 XY   -0.002963  -0.003359  -0.001166   0.003890  -0.006857
   29  C  2 XZ   -0.001536   0.019555  -0.001199   0.001632   0.000803
   30  C  2 YZ    0.029622   0.003236  -0.001540   0.000919   0.003858
   31  C  3  S   -0.000740   0.001319   0.043472   0.005700  -0.092713
   32  C  3  S   -0.001893  -0.005437  -0.061150   0.001196   0.151343
   33  C  3  X   -0.000083  -0.005755   0.014467  -0.079073  -0.078800
   34  C  3  Y    0.010206  -0.012142   0.277329   0.029869  -0.100746
   35  C  3  Z   -0.197778   0.414854  -0.007375   0.010868  -0.004781
   36  C  3  S    0.026616   0.000948  -0.790113  -0.109700   1.396563
   37  C  3  X    0.026128   0.021276  -0.013653  -0.443081  -0.489159
   38  C  3  Y    0.025866  -0.006874   0.599488   0.075386  -0.500472
   39  C  3  Z   -0.263473   0.641115  -0.018025   0.005436  -0.063970
   40  C  3 XX   -0.003163  -0.004425  -0.014495   0.003245  -0.011216
   41  C  3 YY    0.001948   0.005570   0.018712  -0.002023  -0.001685
   42  C  3 ZZ    0.000571  -0.001840   0.003103   0.003057  -0.000918
   43  C  3 XY   -0.001831   0.000004   0.012801   0.012149  -0.002158
   44  C  3 XZ    0.030488   0.000940  -0.000264   0.001098  -0.000166
   45  C  3 YZ   -0.002674  -0.019605   0.003234   0.000073   0.001295
   46  C  4  S    0.001921   0.006395   0.034288  -0.121058   0.057751
   47  C  4  S   -0.003260  -0.012969  -0.058496   0.186775  -0.101794
   48  C  4  X    0.001674   0.007849  -0.126676   0.185055   0.017304
   49  C  4  Y   -0.015067   0.023486   0.160281   0.076567  -0.100255
   50  C  4  Z    0.361220  -0.253463   0.018731   0.000091  -0.006976
   51  C  4  S   -0.032371  -0.083520  -0.459290   2.019753  -0.495262
   52  C  4  X    0.014590   0.013279  -0.369496   0.423252   0.031784
   53  C  4  Y   -0.014044   0.048406   0.280257   0.158793  -0.196865
   54  C  4  Z    0.445355  -0.454109   0.036125   0.007201  -0.002158
   55  C  4 XX   -0.000227   0.001454   0.011065   0.002270   0.009715
   56  C  4 YY    0.000139   0.001043  -0.005024  -0.015590   0.000919
   57  C  4 ZZ    0.000494  -0.001476   0.000558  -0.005603   0.002466
   58  C  4 XY   -0.000841   0.000068  -0.020942  -0.003163   0.004670
   59  C  4 XZ    0.010360  -0.024438   0.000349  -0.000913  -0.000087
   60  C  4 YZ    0.001165  -0.011351   0.000237  -0.000836   0.000295
   61  H  5  S   -0.003870   0.009765   0.046929   0.032151   0.060309
   62  H  5  S   -0.004456   0.047640   0.933809   0.758548   1.619833
   63  H  6  S    0.007689   0.013188   0.071368   0.018360  -0.068257
   64  H  6  S    0.016451   0.075139   1.263360   0.069527  -1.365259
   65  H  7  S    0.000752  -0.001483  -0.040472  -0.097372   0.033572
   66  H  7  S   -0.008213  -0.005082  -0.231028  -1.334031   0.635115
   67  H  8  S    0.001698   0.006313   0.079532  -0.038310   0.022219
   68  H  8  S    0.004168   0.061404   0.994718  -1.167769   0.095969

                     21         22         23         24         25
                    0.1913     0.2616     0.3223     0.3336     0.5154
                     A          A          A          A          A   
    1  O  1  S   -0.012132  -0.103219   0.050205   0.004348   0.008534
    2  O  1  S    0.041320   0.088321  -0.034916   0.012123  -0.039599
    3  O  1  X    0.110910  -0.090433  -0.047884  -0.129117   0.000607
    4  O  1  Y   -0.035078  -0.195653  -0.013882   0.084407   0.016413
    5  O  1  Z    0.001273  -0.023152   0.008205  -0.005741  -0.061348
    6  O  1  S    0.075271   1.994550  -1.216759  -0.089429  -0.119239
    7  O  1  X    0.143999  -0.170371   0.001630  -0.377945   0.003516
    8  O  1  Y   -0.079047  -0.826075   0.446052   0.151086   0.081287
    9  O  1  Z    0.004173  -0.121759   0.079609  -0.015211  -0.042571
   10  O  1 XX    0.002655  -0.061398   0.040635  -0.006471  -0.010630
   11  O  1 YY    0.005362  -0.011859  -0.020043   0.015063  -0.017764
   12  O  1 ZZ    0.002389  -0.065086   0.033710   0.014849   0.009874
   13  O  1 XY    0.003632   0.012372  -0.001162  -0.010790  -0.010038
   14  O  1 XZ    0.001322   0.001872  -0.000654  -0.003535   0.009775
   15  O  1 YZ    0.000995   0.010803  -0.009177  -0.001531   0.036732
   16  C  2  S    0.022401   0.041308  -0.006308  -0.083525  -0.017661
   17  C  2  S   -0.062736  -0.000015  -0.116796   0.105171   0.003918
   18  C  2  X   -0.250515  -0.051294  -0.029895   0.429890   0.133461
   19  C  2  Y    0.052994  -0.170619   0.036665  -0.179798   0.082127
   20  C  2  Z   -0.016595  -0.044347   0.004126   0.027327  -0.641094
   21  C  2  S    0.075429  -1.336042   0.705262   2.067076   0.023619
   22  C  2  X   -0.343028  -0.022282   0.651438   1.760736  -0.061745
   23  C  2  Y   -0.013395  -1.896778   1.306036  -0.882522   0.094051
   24  C  2  Z   -0.045712  -0.300836   0.180130   0.040388   0.698426
   25  C  2 XX    0.009570  -0.020032  -0.022359  -0.011254  -0.028371
   26  C  2 YY    0.004921   0.024512   0.032470  -0.009639  -0.003215
   27  C  2 ZZ   -0.006975  -0.016405  -0.001830   0.010903   0.012235
   28  C  2 XY   -0.001519   0.008925   0.000364   0.016446   0.016997
   29  C  2 XZ    0.001925   0.002204  -0.003116  -0.000026  -0.017997
   30  C  2 YZ    0.001488   0.006471   0.004433  -0.001751  -0.001744
   31  C  3  S   -0.068877   0.031093   0.080716   0.076709   0.019590
   32  C  3  S    0.112617   0.026242  -0.094781  -0.093835  -0.013730
   33  C  3  X   -0.083356  -0.030543  -0.253338   0.183410   0.185075
   34  C  3  Y   -0.100699   0.015422  -0.160354  -0.274643  -0.064405
   35  C  3  Z   -0.006586   0.029733  -0.014533  -0.007447  -0.473389
   36  C  3  S    1.112188  -1.448063  -3.015233  -1.515065  -0.037087
   37  C  3  X   -0.074593  -0.283885  -2.575932   1.602138  -0.469543
   38  C  3  Y   -0.710785  -0.029364  -1.453857  -1.916828  -0.041694
   39  C  3  Z   -0.028923   0.063539  -0.152127  -0.097002   0.242189
   40  C  3 XX   -0.012860   0.041381  -0.018895  -0.003151   0.021678
   41  C  3 YY    0.003818  -0.022171  -0.003298   0.021406   0.004699
   42  C  3 ZZ    0.000713  -0.000759   0.010716  -0.005713  -0.016186
   43  C  3 XY    0.031782   0.012634   0.007804  -0.038252   0.007293
   44  C  3 XZ    0.001657   0.004414  -0.000314  -0.002609  -0.019098
   45  C  3 YZ    0.000425  -0.002550  -0.001321   0.001979  -0.027443
   46  C  4  S    0.009383  -0.015330  -0.075375  -0.002094  -0.001739
   47  C  4  S   -0.007477   0.053987  -0.026965  -0.010933   0.080236
   48  C  4  X   -0.102682  -0.227344  -0.012574   0.039949  -0.147235
   49  C  4  Y    0.346053  -0.053801  -0.026242   0.205636  -0.038344
   50  C  4  Z    0.013966  -0.014609   0.002279   0.017302  -0.557932
   51  C  4  S   -0.143526   0.243184   3.285151  -0.172027   0.224473
   52  C  4  X   -0.341848  -0.740531  -2.828630  -0.211356   0.075953
   53  C  4  Y    1.429754  -0.263505  -0.663061   1.014966   0.067465
   54  C  4  Z    0.068087  -0.055169  -0.074047   0.053496   0.526288
   55  C  4 XX    0.008214  -0.013147  -0.019600  -0.028886   0.011670
   56  C  4 YY   -0.009866   0.011463   0.026294   0.035751  -0.000751
   57  C  4 ZZ    0.003010  -0.000878  -0.011636  -0.004070   0.001658
   58  C  4 XY   -0.002172   0.007102  -0.033488   0.029890   0.008373
   59  C  4 XZ   -0.000057  -0.002105  -0.001565   0.001290   0.029501
   60  C  4 YZ   -0.001006  -0.000781   0.001982   0.002663   0.017543
   61  H  5  S    0.028200   0.024843  -0.093679   0.010998  -0.083801
   62  H  5  S   -0.462161  -0.200883   0.391919   0.744780   0.065257
   63  H  6  S    0.018544  -0.105685   0.011053  -0.004138   0.029433
   64  H  6  S   -1.164119   0.138228  -0.951229  -0.866568  -0.092925
   65  H  7  S   -0.053556   0.067441   0.054247   0.131573  -0.018098
   66  H  7  S   -1.426341   0.465561   0.192427  -0.966218  -0.063302
   67  H  8  S    0.048056  -0.006011   0.121140  -0.120389   0.002719
   68  H  8  S    1.528923   0.398147   0.432601   0.668991   0.048524

                     26         27         28         29         30
                    0.5176     0.5807     0.5833     0.5997     0.6463
                     A          A          A          A          A   
    1  O  1  S   -0.026139  -0.002789  -0.001112   0.015717  -0.006436
    2  O  1  S    0.109555  -0.070749   0.070544  -0.033205   0.019818
    3  O  1  X   -0.004977  -0.215109   0.176142   0.140229  -0.029443
    4  O  1  Y   -0.038995   0.079782  -0.092569  -0.037442  -0.052923
    5  O  1  Z   -0.033398   0.018235   0.039143   0.010085   0.072568
    6  O  1  S    0.360993   0.372505  -0.317847  -0.272946   0.021388
    7  O  1  X    0.023684  -0.125333   0.114494   0.014628  -0.005454
    8  O  1  Y   -0.218512  -0.079236   0.009399   0.201323  -0.056872
    9  O  1  Z   -0.047079   0.062598   0.098411   0.060880   0.046848
   10  O  1 XX    0.027569  -0.019435   0.018398  -0.004926   0.006150
   11  O  1 YY    0.008326   0.010473  -0.000891  -0.002648  -0.012850
   12  O  1 ZZ    0.002661  -0.036986   0.013511   0.019982   0.002490
   13  O  1 XY    0.006222   0.011514  -0.012565   0.015455  -0.009320
   14  O  1 XZ    0.007119   0.006944   0.003754   0.002944   0.007805
   15  O  1 YZ    0.012616  -0.028271  -0.040368  -0.011275  -0.025656
   16  C  2  S    0.057404  -0.014588   0.016698  -0.013698   0.008888
   17  C  2  S    0.015651  -0.139623   0.266239  -0.441648  -0.066355
   18  C  2  X   -0.160266  -0.345340   0.294353  -0.075185  -0.009599
   19  C  2  Y   -0.001195   0.115753  -0.353661   0.227915  -0.150923
   20  C  2  Z   -0.195008   0.489425   0.475616   0.143754   0.241845
   21  C  2  S   -0.166281   0.394731  -0.650203   0.809568  -0.000104
   22  C  2  X   -0.089563   1.037528  -0.920278  -0.173878   0.023288
   23  C  2  Y   -0.521341  -0.654031   0.929737   0.033191   0.125839
   24  C  2  Z    0.140287  -0.683812  -0.664561  -0.203668  -0.688271
   25  C  2 XX    0.091793   0.010619   0.005549  -0.119858  -0.008319
   26  C  2 YY    0.028523  -0.057603   0.066274  -0.013220   0.013826
   27  C  2 ZZ   -0.049063   0.006678  -0.002723   0.030778  -0.006666
   28  C  2 XY   -0.046710   0.021128  -0.023240  -0.016323   0.006180
   29  C  2 XZ    0.003298   0.023250   0.023569  -0.007316  -0.010794
   30  C  2 YZ    0.011371   0.000636   0.014737  -0.007900   0.021789
   31  C  3  S   -0.056449  -0.012885   0.029400  -0.036941   0.008273
   32  C  3  S    0.056286  -0.132736   0.245652  -0.521849  -0.077730
   33  C  3  X   -0.545733   0.186800  -0.180631   0.020429  -0.041392
   34  C  3  Y    0.277557  -0.110024   0.096031   0.081190   0.018940
   35  C  3  Z   -0.156506  -0.088770  -0.060295   0.001079  -0.921370
   36  C  3  S    0.067031  -0.378841   0.196025   1.011701   0.126753
   37  C  3  X    1.355450   0.362262  -0.440796  -0.158866   0.052447
   38  C  3  Y    0.094731  -0.290498   0.296914  -0.184843  -0.072254
   39  C  3  Z    0.126942   0.135917   0.151358   0.016422   1.518609
   40  C  3 XX   -0.058179  -0.084919   0.111669  -0.040565   0.010947
   41  C  3 YY   -0.001455   0.006002   0.030778  -0.160764  -0.003469
   42  C  3 ZZ    0.035210   0.019745  -0.041661   0.053179  -0.009180
   43  C  3 XY   -0.025022   0.032776  -0.027067  -0.005078   0.003670
   44  C  3 XZ   -0.010990  -0.036002  -0.029605  -0.009920   0.014299
   45  C  3 YZ   -0.011435  -0.004454  -0.001067  -0.018265  -0.027485
   46  C  4  S    0.002926   0.016164  -0.016448  -0.014377  -0.013131
   47  C  4  S   -0.214098  -0.207621   0.308711  -0.361453  -0.076754
   48  C  4  X    0.452518   0.220415  -0.249435  -0.040129  -0.059632
   49  C  4  Y    0.244532  -0.124474   0.115744   0.222953  -0.065883
   50  C  4  Z   -0.188618  -0.556122  -0.497172  -0.122251   0.456937
   51  C  4  S   -0.692267   0.108797  -0.157401   0.594796   0.172522
   52  C  4  X   -0.351550  -0.084674   0.038384   0.447300   0.136336
   53  C  4  Y   -0.396974   0.541215  -0.482112  -0.426538   0.173157
   54  C  4  Z    0.169467   0.614227   0.501895   0.129344  -0.887533
   55  C  4 XX   -0.046329   0.037021  -0.025930  -0.059760  -0.022789
   56  C  4 YY    0.009666  -0.041101   0.049701  -0.051777  -0.023517
   57  C  4 ZZ    0.002255  -0.009723   0.005732   0.034679   0.014638
   58  C  4 XY   -0.019245  -0.036059   0.017903   0.061691  -0.006754
   59  C  4 XZ    0.008311   0.020350   0.019218   0.006554   0.025692
   60  C  4 YZ    0.005935  -0.005907  -0.001831  -0.006803  -0.010425
   61  H  5  S    0.263371   0.152762  -0.079254  -0.397670   0.034508
   62  H  5  S   -0.166173   0.158016  -0.139418  -0.051872  -0.015614
   63  H  6  S   -0.127235   0.095377   0.058539  -0.560208   0.018700
   64  H  6  S    0.276740  -0.201729   0.190573   0.000899   0.002737
   65  H  7  S    0.123129  -0.205937   0.187103  -0.046317  -0.107093
   66  H  7  S    0.237180  -0.208597   0.185637  -0.014262  -0.072235
   67  H  8  S   -0.036116   0.152488  -0.072677  -0.409597  -0.072110
   68  H  8  S   -0.084582   0.013263   0.012237  -0.205197  -0.010211

                     31         32         33         34         35
                    0.6531     0.6952     0.8048     0.8408     0.8497
                     A          A          A          A          A   
    1  O  1  S   -0.024213   0.034224   0.018764   0.000986   0.006761
    2  O  1  S    0.041683  -0.128832  -0.112005   0.138399  -0.396133
    3  O  1  X   -0.107345   0.017520  -0.020818   0.066334  -0.135142
    4  O  1  Y   -0.180044   0.338506  -0.269801   0.246722  -0.477516
    5  O  1  Z   -0.057118   0.053902  -0.039588   0.038098  -0.061415
    6  O  1  S    0.012665   0.293574  -0.720753  -0.235169   0.322678
    7  O  1  X    0.021274   0.045146  -0.279585  -0.074585   0.200351
    8  O  1  Y   -0.167206   0.164982   0.737889  -0.360390   0.904714
    9  O  1  Z   -0.037163   0.025626   0.086123  -0.051491   0.130067
   10  O  1 XX    0.027856  -0.048736  -0.047586   0.063521  -0.138501
   11  O  1 YY   -0.097655   0.142153  -0.122322   0.076001  -0.186077
   12  O  1 ZZ    0.008836  -0.060607   0.007910   0.053220  -0.140279
   13  O  1 XY   -0.035772   0.028896   0.076085   0.021065  -0.044468
   14  O  1 XZ   -0.006906   0.006073   0.008158   0.004113  -0.007615
   15  O  1 YZ   -0.014067   0.037218  -0.014035   0.008319  -0.010965
   16  C  2  S    0.034522  -0.039080  -0.004871  -0.011936   0.051764
   17  C  2  S   -0.138921   0.615968   0.246227  -0.105299  -0.146430
   18  C  2  X    0.007833   0.101901  -0.699517  -0.140506   0.330216
   19  C  2  Y   -0.523318   0.749427  -0.044271  -0.022351   0.311718
   20  C  2  Z   -0.153571   0.110730  -0.076510  -0.014417   0.075636
   21  C  2  S   -0.189020  -0.411502   1.360915   0.689572   1.247103
   22  C  2  X   -0.016973  -0.069864   3.146404   0.495752  -0.363560
   23  C  2  Y    0.407616  -0.739758   0.486700  -0.155053  -0.094726
   24  C  2  Z    0.255655  -0.111299   0.328195   0.016042  -0.054552
   25  C  2 XX   -0.014521   0.093763  -0.044186   0.031924   0.043977
   26  C  2 YY    0.087697  -0.083731   0.163437  -0.075773   0.145761
   27  C  2 ZZ   -0.041888   0.037661   0.008046   0.009266  -0.098637
   28  C  2 XY    0.026879  -0.049769  -0.063615  -0.068885   0.070316
   29  C  2 XZ    0.006535   0.000060  -0.009633  -0.010810   0.025711
   30  C  2 YZ    0.018112  -0.027757   0.017849  -0.023465   0.046550
   31  C  3  S    0.044138   0.035015   0.038697   0.009093  -0.001693
   32  C  3  S   -0.345587  -0.028393   0.304095   0.039958   0.179177
   33  C  3  X   -0.357216  -0.493830  -0.081813  -0.154617   0.080616
   34  C  3  Y   -0.194272  -0.050709   0.622766   0.288537   0.184746
   35  C  3  Z    0.175107  -0.037677   0.023290   0.012180   0.021539
   36  C  3  S    0.607420  -0.350728  -1.594807  -0.203435  -0.546773
   37  C  3  X    0.462617   0.362121   0.393634   0.567337  -0.270462
   38  C  3  Y    0.191607   0.229537  -2.844131  -1.541398  -0.832518
   39  C  3  Z   -0.311735   0.064787  -0.179980  -0.079328  -0.060388
   40  C  3 XX    0.063709   0.039558   0.036042   0.052381   0.004549
   41  C  3 YY   -0.012563   0.042108   0.013589  -0.042770  -0.024718
   42  C  3 ZZ   -0.041436  -0.031073  -0.023015  -0.002093   0.011220
   43  C  3 XY    0.021629   0.055399   0.059631  -0.048429  -0.017863
   44  C  3 XZ    0.004278  -0.000191   0.006516  -0.002980  -0.002927
   45  C  3 YZ    0.008779   0.008309   0.004515  -0.003037  -0.001883
   46  C  4  S   -0.069596  -0.057260   0.008941   0.002546  -0.013441
   47  C  4  S   -0.352251  -0.029017   0.176931  -0.020965   0.283414
   48  C  4  X   -0.279860  -0.396355  -0.213293   0.166692   0.274674
   49  C  4  Y   -0.201481  -0.055975   0.058933  -0.989093  -0.297688
   50  C  4  Z   -0.083190  -0.003171   0.013718  -0.052502  -0.010449
   51  C  4  S    0.767025   0.370431   0.568185   0.132191  -0.051118
   52  C  4  X    0.588807   0.338202   0.213918  -0.574209  -0.766794
   53  C  4  Y    0.558285  -0.221185   0.407258   2.515388   0.915435
   54  C  4  Z    0.193953  -0.021412   0.012013   0.130180   0.040959
   55  C  4 XX   -0.120271  -0.103954   0.067592  -0.063097   0.027661
   56  C  4 YY   -0.116383  -0.037839  -0.000696   0.071853  -0.011159
   57  C  4 ZZ    0.077863   0.062367  -0.023723  -0.013366   0.029555
   58  C  4 XY   -0.031560  -0.021848  -0.034583   0.073857   0.085017
   59  C  4 XZ   -0.012888  -0.002015  -0.001566   0.003531   0.005779
   60  C  4 YZ   -0.009508  -0.006707   0.003621   0.006941  -0.001551
   61  H  5  S    0.119000   0.097799  -0.355134  -0.176817   0.524761
   62  H  5  S    0.076913  -0.042593   2.077502   0.301051  -1.008468
   63  H  6  S    0.143351   0.167834   0.192070  -0.040103  -0.101243
   64  H  6  S    0.023777   0.006992  -1.460660  -0.576507  -0.269868
   65  H  7  S   -0.528401  -0.179155  -0.041393   0.479637  -0.020166
   66  H  7  S   -0.302263   0.184536  -0.322167  -1.864240  -0.417850
   67  H  8  S   -0.355412  -0.232466  -0.010907  -0.359520  -0.377398
   68  H  8  S   -0.045179  -0.180121  -0.191358   1.566607   1.120040

                     36         37         38         39         40
                    0.8690     0.9100     0.9560     0.9935     1.0871
                     A          A          A          A          A   
    1  O  1  S   -0.000161   0.007733   0.001641  -0.001647   0.008834
    2  O  1  S   -0.229872  -0.033959   0.164966  -0.011877  -0.086903
    3  O  1  X   -0.091418   0.062955  -0.198357   0.065072  -0.279712
    4  O  1  Y   -0.041444  -0.195544   0.114030   0.128210   0.263070
    5  O  1  Z   -0.000647  -0.102743   0.010232  -0.925871  -0.016522
    6  O  1  S    0.624074  -0.319043  -0.338147   0.104343  -0.572980
    7  O  1  X    0.069778  -0.233565   0.168060  -0.060312   0.197720
    8  O  1  Y    0.047694   0.506579  -0.118671  -0.206571  -0.328372
    9  O  1  Z   -0.004047   0.146641  -0.025183   1.255637   0.037977
   10  O  1 XX   -0.047866  -0.045013   0.043197  -0.001986  -0.025419
   11  O  1 YY   -0.077050  -0.056119   0.016967  -0.008536  -0.057594
   12  O  1 ZZ   -0.092918   0.035781   0.124685  -0.003341   0.080995
   13  O  1 XY    0.023894  -0.030341   0.026910  -0.001523   0.005904
   14  O  1 XZ    0.006885  -0.007005  -0.008739   0.014972   0.006584
   15  O  1 YZ    0.005305  -0.017288  -0.016996   0.032425  -0.015611
   16  C  2  S    0.003204   0.006375  -0.035404   0.001526   0.001327
   17  C  2  S    0.676125  -0.591772  -1.219805   0.072428  -0.315206
   18  C  2  X   -0.292564  -0.077040   0.016404  -0.000512  -0.192584
   19  C  2  Y   -0.087159   0.162818   0.186786  -0.023169  -0.054717
   20  C  2  Z   -0.031615   0.029998   0.023693   0.115650  -0.012840
   21  C  2  S   -1.896232   2.198823   3.718874  -0.338328  -0.325758
   22  C  2  X    0.079456   0.850991   0.380489  -0.157268   1.028507
   23  C  2  Y    0.085188  -0.483205  -1.380784   0.100653   1.339540
   24  C  2  Z    0.039031  -0.021442  -0.115241  -0.647829   0.178511
   25  C  2 XX   -0.024514  -0.067534  -0.134479  -0.006624   0.098058
   26  C  2 YY    0.094555   0.063216  -0.061349   0.008859  -0.088355
   27  C  2 ZZ    0.033924  -0.030206   0.017121   0.001359  -0.022016
   28  C  2 XY   -0.048905   0.038295  -0.066081  -0.003884   0.000957
   29  C  2 XZ   -0.012009   0.011697  -0.027935   0.022837   0.054570
   30  C  2 YZ    0.003104   0.014550  -0.018218  -0.024213  -0.031974
   31  C  3  S   -0.022903   0.000517   0.022608  -0.001803   0.026354
   32  C  3  S    0.691057   0.076850   0.439095  -0.075850   0.839106
   33  C  3  X   -0.106546  -0.418808  -0.384709   0.026664   0.235740
   34  C  3  Y   -0.749944  -0.287384  -0.068054   0.003783   0.064412
   35  C  3  Z   -0.054356  -0.024139  -0.005234  -0.052232   0.009649
   36  C  3  S   -0.969459  -0.221285  -1.010076   0.305140  -3.241670
   37  C  3  X    0.250561   1.847419   2.553691  -0.113778  -2.934243
   38  C  3  Y    1.981988   0.266760  -0.172824   0.169669  -0.303586
   39  C  3  Z    0.134248   0.051659   0.037760   0.290943  -0.118245
   40  C  3 XX    0.121895   0.069388   0.064550  -0.006624   0.018237
   41  C  3 YY   -0.065800  -0.077123   0.012294  -0.000802   0.062691
   42  C  3 ZZ    0.061232   0.026541  -0.016585  -0.002971  -0.006096
   43  C  3 XY   -0.069926   0.056135   0.088268  -0.005121   0.001737
   44  C  3 XZ    0.001073   0.002910   0.005346   0.037965  -0.026658
   45  C  3 YZ   -0.009200  -0.005922  -0.003250  -0.004375   0.043126
   46  C  4  S   -0.000654   0.030473   0.001681  -0.000895  -0.021515
   47  C  4  S    0.239107  -0.323742   1.212929   0.112747  -0.582090
   48  C  4  X    0.176291  -0.641679   0.012557   0.061535  -0.222142
   49  C  4  Y   -0.019496  -0.194172   0.073236   0.004080   0.288459
   50  C  4  Z    0.010108  -0.019705  -0.004239   0.042561   0.025641
   51  C  4  S   -0.849921  -0.177296  -3.622787  -0.325884   4.206308
   52  C  4  X    0.083338   1.631221   0.655154  -0.082784  -0.516281
   53  C  4  Y   -0.201694   0.544620   0.318751  -0.088314  -2.119190
   54  C  4  Z   -0.029881   0.054316   0.039631  -0.154237  -0.118356
   55  C  4 XX   -0.021163  -0.086709   0.075346   0.003652  -0.004900
   56  C  4 YY    0.022761   0.125135   0.048716  -0.001520  -0.005372
   57  C  4 ZZ    0.023207  -0.093942   0.038512   0.012506  -0.056137
   58  C  4 XY    0.065136  -0.080604  -0.036192   0.008044   0.155235
   59  C  4 XZ   -0.000069  -0.002937   0.000336  -0.024120   0.015571
   60  C  4 YZ    0.001938   0.011292  -0.001877  -0.018912   0.022897
   61  H  5  S   -0.301368   0.234710  -0.105232  -0.035951   0.523010
   62  H  5  S    0.827899  -0.182910  -0.623330  -0.022071   0.293151
   63  H  6  S   -0.577382  -0.256529   0.027625   0.046573  -0.043383
   64  H  6  S    2.029613   0.823060   0.439952  -0.006175   0.023840
   65  H  7  S   -0.055307   0.531629  -0.265583  -0.026261   0.286523
   66  H  7  S    0.104631  -1.136365   0.671191   0.184853   0.211898
   67  H  8  S   -0.168135   0.531351  -0.130975  -0.053868  -0.449288
   68  H  8  S    0.308490  -1.098321   0.524858   0.136982  -0.943122

                     41         42         43         44         45
                    1.1063     1.1292     1.2726     1.3435     1.4366
                     A          A          A          A          A   
    1  O  1  S    0.000207   0.013969   0.010248  -0.009924  -0.006614
    2  O  1  S   -0.064836   0.040145   0.370458  -0.258569  -0.070771
    3  O  1  X    0.634736  -0.382177  -0.239142   0.013045   0.021160
    4  O  1  Y    0.025629   0.153939  -0.259322   0.103662   0.001066
    5  O  1  Z    0.062759   0.010994  -0.022246  -0.015552   0.009016
    6  O  1  S    0.012229  -0.534487  -0.549061   0.580201   0.302782
    7  O  1  X   -1.323797   0.581694   0.518693  -0.056685  -0.016271
    8  O  1  Y   -0.066015  -0.157105   0.413158  -0.253375  -0.049599
    9  O  1  Z   -0.131722   0.006854  -0.007390  -0.161280  -0.107684
   10  O  1 XX   -0.029907   0.034315   0.103583  -0.035292  -0.034561
   11  O  1 YY   -0.002610   0.028324   0.133492  -0.051424   0.009443
   12  O  1 ZZ    0.011079   0.020713   0.027967  -0.101053  -0.043292
   13  O  1 XY   -0.117741   0.008057   0.035834   0.024629  -0.012940
   14  O  1 XZ   -0.015717   0.021970   0.001336  -0.159052   0.150565
   15  O  1 YZ   -0.015509   0.001497  -0.029652  -0.149246  -0.126355
   16  C  2  S    0.001655   0.026945   0.029835  -0.004997  -0.005225
   17  C  2  S   -0.004962   0.623698   0.094498   0.009999  -0.060968
   18  C  2  X   -0.395579  -0.043275  -0.197301  -0.000813   0.030148
   19  C  2  Y   -0.030819  -0.158988  -0.004479  -0.014150   0.021495
   20  C  2  Z   -0.042084  -0.030522  -0.019072   0.000201  -0.058850
   21  C  2  S   -0.973713  -2.440263  -1.954560  -0.255032   0.182301
   22  C  2  X    1.790766  -0.308357  -1.499484   0.244013  -0.114904
   23  C  2  Y    0.305281   1.724784   0.424899  -0.048832  -0.324683
   24  C  2  Z    0.208976   0.198038   0.022493   0.117463   0.013721
   25  C  2 XX    0.057969   0.041955  -0.089725   0.097128  -0.055103
   26  C  2 YY   -0.076246   0.010550   0.017926  -0.100242  -0.030385
   27  C  2 ZZ    0.020392   0.004575   0.069217   0.004473   0.079777
   28  C  2 XY    0.153516   0.004888   0.042936   0.018899  -0.066446
   29  C  2 XZ    0.048952   0.061902  -0.056187  -0.384397   0.383513
   30  C  2 YZ   -0.002720  -0.008657   0.079426   0.326374   0.126843
   31  C  3  S   -0.008706  -0.045245  -0.027894   0.000531   0.001867
   32  C  3  S   -0.257788  -1.273022  -0.754931   0.020507   0.044814
   33  C  3  X   -0.021533  -0.046614   0.043181  -0.016555  -0.010191
   34  C  3  Y   -0.159805   0.069835  -0.335781   0.056968   0.006907
   35  C  3  Z   -0.013619   0.005941  -0.014430   0.002304  -0.131289
   36  C  3  S    0.296786   5.295181   3.063399  -0.078938  -0.171886
   37  C  3  X   -0.250615  -0.437683  -0.001472  -0.166643   0.261047
   38  C  3  Y    0.473521  -0.072271   4.071084  -0.545348   0.015033
   39  C  3  Z   -0.019711  -0.069539   0.229937  -0.039319   0.009594
   40  C  3 XX   -0.016548   0.021386  -0.079112  -0.010504  -0.008458
   41  C  3 YY   -0.035130  -0.185399   0.009494   0.034179  -0.048951
   42  C  3 ZZ    0.018512   0.014953   0.031506  -0.024966   0.060904
   43  C  3 XY    0.067781  -0.004468   0.051398  -0.026976  -0.030138
   44  C  3 XZ   -0.013162  -0.025507   0.069247   0.467227   0.260836
   45  C  3 YZ    0.012901   0.029454  -0.038273  -0.241956   0.547760
   46  C  4  S    0.009077   0.022386   0.015311  -0.002669  -0.000189
   47  C  4  S    0.763245   0.959603   0.223030   0.030045  -0.031484
   48  C  4  X    0.025256  -0.262658   0.042173  -0.061603   0.026116
   49  C  4  Y    0.044290   0.024786   0.066781   0.020560  -0.010835
   50  C  4  Z    0.001080   0.014279  -0.011828  -0.119242  -0.092244
   51  C  4  S   -1.698884  -2.676195  -2.197058   0.280989  -0.095064
   52  C  4  X    0.274404   1.096287   1.456958  -0.065216  -0.032742
   53  C  4  Y   -0.939765   0.319505  -2.197410   0.166372   0.135743
   54  C  4  Z   -0.025254   0.033112  -0.098445   0.033254   0.010926
   55  C  4 XX    0.012168   0.006685  -0.117469   0.019421   0.012801
   56  C  4 YY    0.038299   0.105221   0.105808   0.027422  -0.019946
   57  C  4 ZZ    0.046357   0.000594   0.042604  -0.048209   0.007123
   58  C  4 XY    0.020824  -0.016401   0.086283   0.021050   0.012802
   59  C  4 XZ    0.010417   0.003215  -0.033842  -0.255158  -0.461799
   60  C  4 YZ    0.005929   0.027598  -0.023328  -0.225565   0.138348
   61  H  5  S    0.359440   0.362482  -0.230980   0.104092  -0.059539
   62  H  5  S    0.932314   0.450641  -0.134112   0.094487  -0.124796
   63  H  6  S    0.011548  -0.454257   0.719432  -0.139917   0.030499
   64  H  6  S    0.109973  -0.690533   1.218523  -0.245418   0.050507
   65  H  7  S    0.026651   0.077035   0.660780  -0.051478  -0.019359
   66  H  7  S    0.966796   0.074184   0.775653  -0.092466  -0.038414
   67  H  8  S   -0.336268   0.157439  -0.470035   0.045071   0.022056
   68  H  8  S    0.185856   0.109925  -0.594060  -0.005254   0.055680

                     46         47         48         49         50
                    1.5431     1.5626     1.6570     1.7257     1.7994
                     A          A          A          A          A   
    1  O  1  S    0.000453  -0.102744  -0.000464  -0.042667   0.003608
    2  O  1  S    0.014984  -1.604322   0.002410  -0.809323   0.121544
    3  O  1  X   -0.022413   0.019497   0.008021  -0.055193   0.243421
    4  O  1  Y   -0.020869   0.097948   0.004607   0.068230  -0.085756
    5  O  1  Z    0.110818   0.033227  -0.056163   0.014318   0.015356
    6  O  1  S   -0.028967   5.687140  -0.001971   2.842890  -0.290141
    7  O  1  X    0.015355  -0.023098  -0.009643   0.112929  -0.416472
    8  O  1  Y    0.004041  -1.645525  -0.009972  -0.896843   0.144346
    9  O  1  Z    0.080088  -0.256651   0.075280  -0.130754  -0.024627
   10  O  1 XX    0.024114  -0.060966   0.041105  -0.543891  -0.140560
   11  O  1 YY   -0.106771  -0.568151   0.017257  -0.270903  -0.093061
   12  O  1 ZZ    0.090541  -0.532466  -0.059992   0.332592   0.312381
   13  O  1 XY   -0.038768   0.036296   0.053843   0.037588   0.529411
   14  O  1 XZ   -0.115805   0.081782  -0.294675  -0.063177   0.026959
   15  O  1 YZ    0.464892   0.017193  -0.066617  -0.078340   0.000254
   16  C  2  S    0.000900  -0.023318   0.000580   0.010367   0.021321
   17  C  2  S   -0.000110  -0.270075   0.000103   0.373970  -0.109209
   18  C  2  X   -0.035205   0.028212   0.000788   0.205411   0.032807
   19  C  2  Y   -0.024976  -0.039002  -0.001755  -0.161124   0.091130
   20  C  2  Z    0.180538   0.001650   0.006555   0.002023   0.020751
   21  C  2  S   -0.122942  -2.363041  -0.011259  -2.184585  -0.320463
   22  C  2  X   -0.071068  -1.511826   0.021737  -1.115053   0.756287
   23  C  2  Y    0.057174  -3.082625   0.037716  -1.164304   0.137197
   24  C  2  Z   -0.108845  -0.537852  -0.175024  -0.237620   0.100952
   25  C  2 XX    0.060463   0.242915   0.041315  -0.267404  -0.151449
   26  C  2 YY    0.121635  -0.162148  -0.043534  -0.099991   0.044841
   27  C  2 ZZ   -0.181236  -0.111931   0.002559   0.435025   0.076973
   28  C  2 XY    0.111484  -0.130212   0.018622   0.085198  -0.445677
   29  C  2 XZ   -0.338002   0.041086  -0.255380  -0.048906  -0.087562
   30  C  2 YZ   -0.464467  -0.059838   0.163233  -0.104614  -0.058963
   31  C  3  S   -0.004517  -0.020277   0.000273  -0.007634   0.016887
   32  C  3  S   -0.082428  -0.557898  -0.000005   0.043767  -0.294281
   33  C  3  X   -0.003724  -0.117969  -0.000738  -0.137719   0.247971
   34  C  3  Y   -0.011704  -0.140147  -0.000511   0.074435  -0.156625
   35  C  3  Z   -0.091702  -0.010907   0.027707  -0.000815  -0.009040
   36  C  3  S    0.347197   2.197586  -0.013888   0.815014  -0.078158
   37  C  3  X    0.050638   2.025244  -0.067660   0.773781  -0.449292
   38  C  3  Y    0.242159   1.941345  -0.059180   1.021225   0.307115
   39  C  3  Z    0.022667   0.245400   0.176860   0.109877  -0.017872
   40  C  3 XX    0.002298  -0.053295  -0.003588  -0.136510   0.066059
   41  C  3 YY   -0.014294   0.177182   0.011786  -0.154141  -0.040286
   42  C  3 ZZ    0.011119  -0.117999  -0.007720   0.391704   0.002012
   43  C  3 XY    0.008076  -0.048871   0.004637   0.177575  -0.352125
   44  C  3 XZ    0.156260  -0.062255  -0.122441  -0.010786  -0.011708
   45  C  3 YZ    0.186150   0.024764  -0.008828  -0.039821  -0.006866
   46  C  4  S    0.001629   0.004226  -0.000738   0.015034   0.006149
   47  C  4  S    0.038207   0.173924   0.004588   0.014544   0.082365
   48  C  4  X    0.002624  -0.016723  -0.014028   0.081319  -0.051072
   49  C  4  Y    0.020304   0.039228  -0.000696  -0.097115   0.066967
   50  C  4  Z   -0.080225   0.026539   0.025069   0.000303  -0.005257
   51  C  4  S   -0.245090  -2.534323   0.067651  -1.166351  -0.019300
   52  C  4  X    0.163908   1.238156  -0.009394   0.145542  -0.003719
   53  C  4  Y   -0.148197  -0.039641  -0.000483   0.029966  -0.131874
   54  C  4  Z    0.060977  -0.029446  -0.067963  -0.009310   0.012476
   55  C  4 XX    0.007955  -0.064912   0.000715  -0.027505  -0.144514
   56  C  4 YY    0.007785   0.113429  -0.075142  -0.235850   0.175740
   57  C  4 ZZ   -0.021926  -0.053966   0.075186   0.299845   0.032120
   58  C  4 XY    0.021929   0.007258  -0.005005  -0.062057   0.069936
   59  C  4 XZ   -0.322085   0.048785  -0.102281  -0.013129  -0.024233
   60  C  4 YZ    0.015978   0.035527   0.867789  -0.013437   0.002953
   61  H  5  S   -0.014717  -0.316148   0.006382   0.049105   0.576095
   62  H  5  S   -0.002515  -0.743607  -0.000831  -0.279278   0.196942
   63  H  6  S    0.018339   0.244904  -0.020496   0.215993   0.186440
   64  H  6  S    0.059154   0.582295  -0.024150   0.420433   0.059873
   65  H  7  S    0.039359   0.134714  -0.003043   0.279454  -0.200293
   66  H  7  S    0.062329   0.071804  -0.006594   0.067263   0.188045
   67  H  8  S   -0.024312   0.042620  -0.000230   0.064197   0.063427
   68  H  8  S   -0.068560  -0.208474  -0.007755   0.160498   0.009308

                     51         52         53         54         55
                    1.8365     1.9242     1.9940     2.0445     2.1612
                     A          A          A          A          A   
    1  O  1  S    0.002356  -0.015395   0.000041  -0.014666  -0.006571
    2  O  1  S    0.028505   0.001003  -0.293155  -0.413709  -0.087621
    3  O  1  X    0.002504  -0.032028   0.114702  -0.053017  -0.031087
    4  O  1  Y    0.011062  -0.079901   0.244968   0.203130  -0.030725
    5  O  1  Z    0.036959  -0.019751   0.048606   0.028669   0.004775
    6  O  1  S   -0.146871   0.353828   0.449305   1.342147   0.430206
    7  O  1  X   -0.001780   0.125241  -0.159019   0.279106   0.104675
    8  O  1  Y    0.039207  -0.094976  -0.190524  -0.460022  -0.163807
    9  O  1  Z   -0.050582   0.010065  -0.049905  -0.051813  -0.051829
   10  O  1 XX   -0.130800  -0.387764   0.106587  -0.598429   0.213455
   11  O  1 YY    0.010490  -0.002324  -0.096754   0.012295  -0.044754
   12  O  1 ZZ    0.133129   0.316813  -0.189616   0.340701  -0.196297
   13  O  1 XY   -0.122082   0.188938   0.224163  -0.284198  -0.098488
   14  O  1 XZ    0.816630  -0.056392   0.016895  -0.153735  -0.068205
   15  O  1 YZ   -0.001374  -0.054093   0.021643  -0.084295   0.072726
   16  C  2  S   -0.000343   0.001885  -0.021266  -0.001631   0.031431
   17  C  2  S    0.010220   0.188242   0.168657   0.040240   0.255773
   18  C  2  X   -0.009443   0.047505   0.222354  -0.154115   0.072852
   19  C  2  Y    0.000688  -0.119116   0.019898   0.191963  -0.022960
   20  C  2  Z    0.068860  -0.015463   0.012248   0.007540   0.014169
   21  C  2  S    0.016032  -0.945749  -0.472801  -1.426901  -1.081646
   22  C  2  X    0.041982  -0.706143  -0.023106  -1.614091  -0.493720
   23  C  2  Y    0.107701   0.109413  -0.081938  -0.613226   0.128514
   24  C  2  Z    0.129641  -0.073987   0.019762  -0.195962   0.051755
   25  C  2 XX    0.002335   0.160155  -0.438393  -0.018582  -0.358832
   26  C  2 YY    0.041794  -0.116477   0.384730   0.208379  -0.105461
   27  C  2 ZZ   -0.050800  -0.111257  -0.000817  -0.293536   0.512060
   28  C  2 XY    0.020099   0.077353  -0.082869   0.172387   0.075533
[...]

          ATOMIC WEIGHTS (AMU)

    1     O                15.99491
    2     C                12.00000
    3     C                12.00000
    4     C                12.00000
    5     H                 1.00782
    6     H                 1.00782
    7     H                 1.00782
    8     H                 1.00782

 MODES    1 TO    6 ARE TAKEN AS ROTATIONS AND TRANSLATIONS.

 ANALYZING SYMMETRY OF NORMAL MODES...

     FREQUENCIES IN CM**-1, IR INTENSITIES IN DEBYE**2/AMU-ANGSTROM**2,
     REDUCED MASSES IN AMU.

                            1           2           3           4           5
       FREQUENCY:        10.02        1.90        0.08        0.02        0.32  
        SYMMETRY:         A           A           A           A           A   
    REDUCED MASS:      5.63878     4.49469     7.02576     6.99937     6.40278
    IR INTENSITY:      0.10644     0.06598     0.00000     0.00000     0.00183

  1   O            X -0.00521608  0.14313944  0.00135571  0.03747119  0.10585449
                   Y -0.01498369  0.06611807 -0.00514145  0.12803966 -0.04920047
                   Z  0.17652994  0.00920702  0.13411553  0.00470514 -0.00438000
  2   C            X -0.00134850  0.02614454  0.00135338  0.03757753  0.12559710
                   Y -0.00379406  0.08042215 -0.00511825  0.12803500 -0.05161408
                   Z  0.04361348  0.00631739  0.13385407  0.00463301 -0.00387395
  3   C            X  0.00332623 -0.06874336  0.00136520  0.03766958  0.14160919
                   Y  0.00992732 -0.02713629 -0.00506891  0.12815149 -0.03346855
                   Z -0.11786095 -0.00564164  0.13316376  0.00440059 -0.00180954
  4   C            X  0.00375823 -0.03040533  0.00138177  0.03764070  0.13513619
                   Y  0.01004414 -0.15096091 -0.00504680  0.12827763 -0.01255907
                   Z -0.12588960 -0.01285584  0.13277367  0.00425988 -0.00055095
  5   H            X -0.00107307 -0.01692248  0.00134242  0.03761266  0.13286338
                   Y -0.00337754  0.17879661 -0.00513306  0.12793545 -0.06821348
                   Z  0.03645831  0.01283322  0.13412495  0.00474251 -0.00498947
  6   H            X  0.00653121 -0.17087000  0.00136251  0.03777038  0.15885942
                   Y  0.01937371 -0.00059603 -0.00505148  0.12813148 -0.03794765
                   Z -0.22917822 -0.00812541  0.13298519  0.00435284 -0.00138548
  7   H            X  0.00052670  0.07235171  0.00138431  0.03754826  0.11778124
                   Y  0.00040252 -0.17476223 -0.00506429  0.12829559 -0.00853425
                   Z -0.01257100 -0.00989375  0.13296105  0.00431475 -0.00105446
  8   H            X  0.00739962 -0.09902095  0.00139322  0.03771057  0.14673110
                   Y  0.01956789 -0.23054066 -0.00501083  0.12836245  0.00087936
                   Z -0.24324454 -0.02155113  0.13226270  0.00409082  0.00095565

 TRANS. SAYVETZ    X -0.00110996  1.19731275  0.07641407  2.10582261  7.08183046
                   Y -0.00928604 -0.34342748 -0.28546279  7.17828942 -2.07336400
                   Z -0.03010959 -0.02584195  7.47916320  0.25241786 -0.15139543
               TOTAL  0.03152856  1.24586037  7.48499902  7.48505462  7.38065590

   ROT. SAYVETZ    X 12.21040858  0.57973100  0.04367082  0.01425799 -0.10097644
                   Y 10.96485853  1.51256018  0.05698443  0.01880248 -0.25976791
                   Z  1.26191395-18.88173864  0.00449811  0.01921790  3.18676457
               TOTAL 16.45948441 18.95109444  0.07193468  0.03043273  3.19892857

                            6           7           8           9          10
       FREQUENCY:        18.09      188.51      288.61      562.56      685.06  
        SYMMETRY:         A           A           A           A           A   
    REDUCED MASS:      2.50639     1.84816     3.58646     1.25498     2.78385
    IR INTENSITY:      0.04475     0.16801     0.16424     0.15062     0.25553

  1   O            X -0.00256870  0.00117370  0.14336696 -0.00145333  0.07626288
                   Y -0.00523949  0.00724222 -0.05110638 -0.00187701 -0.08686975
                   Z  0.05730308 -0.08430098 -0.00039248  0.02841084 -0.00502782
  2   C            X  0.00385170 -0.00328106 -0.01103139  0.00127800 -0.11410195
                   Y  0.01017707 -0.01045921 -0.03358747  0.00119804 -0.04876402
                   Z -0.12731302  0.12416137 -0.00230391 -0.01047011 -0.00752825
  3   C            X  0.00387804  0.00394894 -0.04707186  0.00406137 -0.02436444
                   Y  0.00855508  0.01001167 -0.05987543  0.00984979  0.14806045
                   Z -0.09551476 -0.11079775 -0.00748724 -0.12637945  0.01094641
  4   C            X -0.00462431 -0.00138349 -0.10624127 -0.00107445  0.02411174
                   Y -0.01219181 -0.00571486  0.12395733 -0.00227630  0.03320106
                   Z  0.15543869  0.06032440  0.00770338  0.02457265  0.00359125
  5   H            X  0.01012467 -0.01365123 -0.05741738 -0.00749406 -0.13180598
                   Y  0.02667505 -0.04452082  0.07816900 -0.02750798 -0.00758332
                   Z -0.33641774  0.51465223  0.00856890  0.31928481 -0.00228584
  6   H            X  0.01024766  0.01045505  0.03001420 -0.01137412  0.10839954
                   Y  0.02425654  0.02887384 -0.07724088 -0.03015201  0.11187506
                   Z -0.28349502 -0.33361863 -0.00803850  0.35004225  0.01611567
  7   H            X -0.01103494 -0.00912470 -0.31442880  0.01115297  0.39037313
                   Y -0.02770433 -0.02984871  0.17130300  0.03421205 -0.05527840
                   Z  0.34095499  0.34343341  0.00665308 -0.40405451  0.00658715
  8   H            X -0.00521158  0.00202911  0.02298261 -0.02002963 -0.21564979
                   Y -0.01410519  0.00383697  0.27581014 -0.05120912 -0.24800134
                   Z  0.18268599 -0.06401080  0.02388906  0.62072719 -0.02407980

 TRANS. SAYVETZ    X  0.00033706 -0.00018648 -0.00033701 -0.00002870  0.00006308
                   Y  0.00387233 -0.00009476  0.00003842 -0.00000552 -0.00004902
                   Z  0.01086342 -0.00007122 -0.00001522  0.00003870  0.00000193
               TOTAL  0.01153787  0.00022097  0.00033954  0.00004850  0.00007991

   ROT. SAYVETZ    X  3.41677653 -0.09072939 -0.00296353 -0.00318741  0.00161700
                   Y -9.29989068  0.09675802  0.00137371  0.01743439 -0.00212570
                   Z -0.54985277  0.05006286 -0.00627632 -0.00065308  0.00069562
               TOTAL  9.92293639  0.14177526  0.00707544  0.01773539  0.00275992

                           11          12          13          14          15
       FREQUENCY:       941.23     1001.62     1031.38     1040.25     1077.55  
        SYMMETRY:         A           A           A           A           A   
    REDUCED MASS:      3.16642     1.36110     1.13346     1.64536     1.47218
    IR INTENSITY:      1.42955     0.33971     0.44863     0.27292     0.12105

  1   O            X -0.01923212  0.00022771 -0.00105600 -0.00089994 -0.02002499
                   Y -0.03111836  0.00058710 -0.00068188 -0.00333925  0.04657506
                   Z -0.00315361 -0.00643614  0.02137248  0.03598085  0.00314877
  2   C            X  0.19296762 -0.00088441  0.00271031  0.00425833  0.02602712
                   Y -0.04825886 -0.00186929  0.00754516  0.01286251  0.01183620
                   Z  0.00145250  0.02268570 -0.08426331 -0.15371649  0.00265312
  3   C            X -0.05905255 -0.00197005  0.00097098 -0.00315551  0.02209015
                   Y  0.08347762 -0.00550002 -0.00134673 -0.00766187 -0.11704269
                   Z  0.00585978  0.06285623 -0.01579132  0.09789446 -0.00828883
  4   C            X -0.09716445  0.00465683  0.00033431  0.00035220 -0.06096376
                   Y  0.02607650  0.01159282  0.00517010 -0.00040856  0.07967822
                   Z -0.00124573 -0.13745992 -0.04488869  0.00197721  0.00561012
  5   H            X  0.26364861  0.00203638 -0.00825490 -0.01718968 -0.01180519
                   Y -0.21444086  0.00741949 -0.02166597 -0.05395809  0.10951516
                   Z -0.01127582 -0.08565263  0.28495719  0.62987772  0.00635892
  6   H            X -0.20082156  0.00825375 -0.00890097  0.00859660  0.46126504
                   Y  0.12880000  0.02289982 -0.05684913  0.03394106 -0.22870006
                   Z  0.00626258 -0.27329988  0.61329950 -0.38555282 -0.01971359
  7   H            X  0.04948260 -0.01313439 -0.01261288  0.00323299  0.39202385
                   Y -0.01298707 -0.03323338 -0.05327452  0.01283699 -0.03222289
                   Z  0.00254030  0.39645567  0.62422072 -0.14955328 -0.00258763
  8   H            X -0.24460596 -0.02223256 -0.00129090  0.00231381 -0.37074768
                   Y -0.13733557 -0.05669489  0.00723823  0.00311844 -0.28383049
                   Z -0.01970782  0.68283229 -0.13583697 -0.02467964 -0.03372727

 TRANS. SAYVETZ    X  0.00005989 -0.00000243 -0.00000605 -0.00000436 -0.00003617
                   Y -0.00000218 -0.00000272 -0.00001026  0.00000065 -0.00001944
                   Z  0.00000242  0.00001082  0.00002199  0.00001308 -0.00000092
               TOTAL  0.00005998  0.00001142  0.00002501  0.00001381  0.00004108

   ROT. SAYVETZ    X  0.00029497 -0.00041019 -0.00052929  0.00001396 -0.00047070
                   Y  0.00103148 -0.00145050  0.00460858  0.00483036 -0.00115856
                   Z  0.00310184  0.00140612  0.00227054  0.00125982  0.00055282
               TOTAL  0.00328212  0.00206140  0.00516474  0.00499197  0.00136727

                           16          17          18          19          20
       FREQUENCY:      1325.67     1445.54     1453.39     1686.23     1806.40  
        SYMMETRY:         A           A           A           A           A   
    REDUCED MASS:      1.32231     1.15855     1.30056     4.72091     7.62008
    IR INTENSITY:      0.06071     0.08420     0.92199     1.66353     2.28691

  1   O            X  0.00568561 -0.03298508 -0.02916146 -0.00167922 -0.01630150
                   Y  0.01262892 -0.05000816 -0.03649443 -0.04876126 -0.13898883
                   Z  0.00123527 -0.00511853 -0.00387539 -0.00415532 -0.01218083
  2   C            X  0.00451020  0.04360032  0.07640497 -0.02417451  0.01724340
                   Y -0.00265423 -0.00699026 -0.01464828  0.07221372  0.21249990
                   Z -0.00017851  0.00055443  0.00089038  0.00542371  0.01842355
  3   C            X  0.01487618  0.06393073 -0.09608523  0.18183835 -0.05553306
                   Y  0.09728462  0.02150271  0.03332895  0.01787620 -0.02604889
                   Z  0.00902888  0.00376353 -0.00013983  0.00738056 -0.00395214
  4   C            X -0.05441014  0.01910211 -0.01310594 -0.16471346  0.04659889
                   Y -0.09233082  0.00517073 -0.03007515 -0.04246785  0.01694597
                   Z -0.00962918  0.00098084 -0.00289291 -0.00902969  0.00296072
  5   H            X  0.06531343 -0.23967195 -0.12327106 -0.01260631  0.13709807
                   Y -0.11985539  0.68676810  0.49240044  0.02199186 -0.11279500
                   Z -0.00788436  0.05152866  0.03817355  0.00140991 -0.00590486
  6   H            X  0.71678395 -0.11362241  0.25282320 -0.11986722  0.09946577
                   Y -0.07328426  0.07452565 -0.05108277  0.11438833 -0.07658046
                   Z  0.01550410  0.00347372  0.00270456  0.00600257 -0.00360907
  7   H            X -0.44204827 -0.37715615  0.36517266  0.20780988 -0.05356472
                   Y -0.00807458  0.09165660 -0.11058541 -0.14598205  0.05114827
                   Z -0.01553580 -0.00382584  0.00167742 -0.00592253  0.00273911
  8   H            X -0.01326042 -0.25382371  0.35841318  0.03529276 -0.02328367
                   Y -0.02660399 -0.29364038  0.38412789  0.21645271 -0.07775919
                   Z -0.00241545 -0.03303237  0.04445674  0.01951880 -0.00747005

 TRANS. SAYVETZ    X  0.00000152  0.00002843 -0.00005546  0.00004017 -0.00006496
                   Y -0.00000767  0.00000875 -0.00000506  0.00000230 -0.00002656
                   Z -0.00000005  0.00000123 -0.00000162  0.00000430 -0.00000219
               TOTAL  0.00000782  0.00002978  0.00005572  0.00004046  0.00007021

   ROT. SAYVETZ    X  0.00144971  0.00147647 -0.00048130 -0.00103681 -0.00023940
                   Y -0.00011459 -0.00040113  0.00106090 -0.00028712  0.00004184
                   Z  0.00099566 -0.00322741 -0.00186889 -0.00056741  0.00104072
               TOTAL  0.00176242  0.00357170  0.00220225  0.00121630  0.00106872

                           21          22          23          24
       FREQUENCY:      2918.21     3169.04     3182.25     3261.50  
        SYMMETRY:         A           A           A           A   
    REDUCED MASS:      1.08440     1.06100     1.08959     1.11777
    IR INTENSITY:      3.67945     0.19195     0.26185     0.08417

  1   O            X  0.00045587  0.00033082 -0.00004533  0.00014523
                   Y -0.00179707  0.00046559 -0.00029165  0.00028196
                   Z -0.00013984  0.00004862 -0.00002831  0.00002839
  2   C            X -0.07538629 -0.00244109 -0.00458683 -0.00045829
                   Y -0.02663128 -0.00101402  0.00095258 -0.00020955
                   Z -0.00433509 -0.00015259 -0.00004453 -0.00002963
  3   C            X  0.00214055 -0.00682542 -0.02294018 -0.00296439
                   Y  0.00197303 -0.04154615 -0.06749324 -0.00855474
                   Z  0.00023111 -0.00370667 -0.00642838 -0.00081469
  4   C            X -0.00031442 -0.05094515  0.03537293  0.03155764
                   Y  0.00005396 -0.01275158  0.02055129 -0.08848117
                   Z -0.00000540 -0.00277072  0.00291022 -0.00637491
  5   H            X  0.88563644  0.01675336  0.03681088 -0.00021627
                   Y  0.35552959  0.00495020  0.00834650 -0.00091424
                   Z  0.05453454  0.00087269  0.00172642 -0.00008860
  6   H            X -0.02068802  0.12736982  0.19462427  0.02491311
                   Y -0.03881133  0.50304255  0.76443938  0.08917967
                   Z -0.00392626  0.04634774  0.07048071  0.00828367
  7   H            X  0.00466887  0.11945807 -0.09382940  0.15330539
                   Y  0.00629439  0.53967533 -0.42218413  0.62485284
                   Z  0.00069146  0.04926753 -0.03856634  0.05755419
  8   H            X -0.00096955  0.44803953 -0.23030545 -0.51530388
                   Y -0.00153007 -0.39647834  0.20161685  0.44029552
                   Z -0.00015080 -0.01832041  0.00922871  0.01975815

 TRANS. SAYVETZ    X  0.00001453 -0.00005923  0.00000102  0.00000132
                   Y  0.00000266 -0.00000857  0.00000233  0.00000372
                   Z -0.00000009 -0.00000278 -0.00000006 -0.00000012
               TOTAL  0.00001477  0.00005991  0.00000254  0.00000396

   ROT. SAYVETZ    X  0.00006313  0.00007751 -0.00008572 -0.00008877
                   Y -0.00008561  0.00014514 -0.00009967 -0.00003772
                   Z -0.00009244 -0.00007618 -0.00021845 -0.00018638
               TOTAL  0.00014093  0.00018132  0.00025495  0.00020986

 REFERENCE ON SAYVETZ CONDITIONS - A. SAYVETZ, J.CHEM.PHYS., 7, 383-389(1939).

 NOTE - THE MODES J,K ARE ORTHONORMALIZED ACCORDING TO
 SUM ON I   M(I) * (X(I,J)*X(I,K) + Y(I,J)*Y(I,K) + Z(I,J)*Z(I,K)) = DELTA(J,K)

  MODE FREQ(CM**-1)  SYMMETRY  RED. MASS  IR INTENS.
     1      10.015    A        5.638779    0.106438
     2       1.900    A        4.494694    0.065977
     3       0.083    A        7.025762    0.000001
     4       0.016    A        6.999367    0.000000
     5       0.319    A        6.402783    0.001826
     6      18.086    A        2.506386    0.044746
     7     188.507    A        1.848159    0.168014
     8     288.612    A        3.586455    0.164242
     9     562.558    A        1.254980    0.150616
    10     685.060    A        2.783850    0.255526
    11     941.226    A        3.166421    1.429554
    12    1001.624    A        1.361099    0.339707
    13    1031.383    A        1.133457    0.448635
    14    1040.247    A        1.645358    0.272916
    15    1077.550    A        1.472175    0.121052
    16    1325.671    A        1.322310    0.060713
    17    1445.537    A        1.158546    0.084202
    18    1453.394    A        1.300560    0.921994
    19    1686.232    A        4.720906    1.663533
    20    1806.395    A        7.620082    2.286905
    21    2918.213    A        1.084404    3.679449
    22    3169.035    A        1.061002    0.191954
    23    3182.249    A        1.089593    0.261847
    24    3261.505    A        1.117773    0.084174

     -------------------------------
     THERMOCHEMISTRY AT T=  298.15 K
     -------------------------------

 USING IDEAL GAS, RIGID ROTOR, HARMONIC NORMAL MODE APPROXIMATIONS.
 P=  1.01325E+05 PASCAL.
 ALL FREQUENCIES ARE SCALED BY   1.00000
 THE MOMENTS OF INERTIA ARE (IN AMU*BOHR**2)
             79.10816           290.28372           369.39120
 THE ROTATIONAL SYMMETRY NUMBER IS  1.0
 THE ROTATIONAL CONSTANTS ARE (IN GHZ)
     22.79270     6.21147     4.88124
      7 -     24 VIBRATIONAL MODES ARE USED IN THERMOCHEMISTRY.
 THE HARMONIC ZERO POINT ENERGY IS (SCALED BY   1.000)
        0.061659 HARTREE/MOLECULE    13532.498774 CM**-1/MOLECULE 
       38.691394 KCAL/MOL              161.884794 KJ/MOL

               Q               LN Q
 ELEC.     1.00000E+00       0.000000
 TRANS.    1.64832E+07      16.617850
 ROT.      3.29691E+04      10.403325
 VIB.      2.58158E+00       0.948400
 TOT.      1.40292E+12      27.969575

              E         H         G         CV        CP        S
           KJ/MOL    KJ/MOL    KJ/MOL   J/MOL-K   J/MOL-K   J/MOL-K
 ELEC.      0.000     0.000     0.000     0.000     0.000     0.000
 TRANS.     3.718     6.197   -41.195    12.472    20.786   158.954
 ROT.       3.718     3.718   -25.789    12.472    12.472    98.969
 VIB.     165.860   165.860   159.534    32.216    32.216    21.218
 TOTAL    173.297   175.776    92.550    57.159    65.473   279.141
 VIB. THERMAL CORRECTION E(T)-E(0) = H(T)-H(0) =      3975.232 J/MOL

              E         H         G         CV        CP        S
         KCAL/MOL  KCAL/MOL  KCAL/MOL CAL/MOL-K CAL/MOL-K CAL/MOL-K
 ELEC.      0.000     0.000     0.000     0.000     0.000     0.000
 TRANS.     0.889     1.481    -9.846     2.981     4.968    37.991
 ROT.       0.889     0.889    -6.164     2.981     2.981    23.654
 VIB.      39.641    39.641    38.129     7.700     7.700     5.071
 TOTAL     41.419    42.011    22.120    13.661    15.649    66.716
 VIB. THERMAL CORRECTION E(T)-E(0) = H(T)-H(0) =       950.103 CAL/MOL
 ......END OF NORMAL COORDINATE ANALYSIS......
 STEP CPU TIME =     0.00 TOTAL CPU TIME =        783.3 (     13.1 MIN)
 TOTAL WALL CLOCK TIME=        813.3 SECONDS, CPU UTILIZATION IS    96.32%
               1080583  WORDS OF DYNAMIC MEMORY USED
 EXECUTION OF GAMESS TERMINATED NORMALLY Tue Oct  4 21:30:34 2022
 DDI: 263640 bytes (0.3 MB / 0 MWords) used by master data server.

 ----------------------------------------
 CPU timing information for all processes
 ========================================
 0: 779.436 + 3.905 = 783.341
 ----------------------------------------
 ddikick.x: exited gracefully.
----- accounting info -----
Files used on the master node chemcompute-node-1.novalocal were:
-rw-r--r--. 1 chemcomp chemcomp     1021 Oct  4 21:17 /scratch/120807/460764.F05
-rw-rw-r--. 1 chemcomp chemcomp 65536000 Oct  4 21:30 /scratch/120807/460764.F10
-rw-rw-r--. 1 chemcomp chemcomp  4143136 Oct  4 21:30 /scratch/120807/460764.F22
Tue Oct  4 21:30:38 UTC 2022
0.096u 0.035s 13:36.63 0.0%	0+0k 8+208io 0pf+0w
Finishing Up...
Looking for IR data...
Looking for Raman data...
vibramans not found
Looking for thermodynamics data...
Looking for UV-Vis data...
chemcompute.org
{'UTCtimestamp': '2022-10-04T21:30:39.864677', 'cluster': 'jetstream2', 'clusterJobNumber': '120807', 'status': 'COMPLETE', 'nodeList': 'chemcompute-node-1'}
120807
